<?xml version="1.0" encoding="UTF-8"?>

<!-- generated on 2024-11-13 10:47:50 by Eclipse SUMO GUI Version 1.21.0
<sumoConfiguration xmlns:xsi="http://www.w3.org/2001/XMLSchema-instance" xsi:noNamespaceSchemaLocation="http://sumo.dlr.de/xsd/sumoConfiguration.xsd">

    <input>
        <net-file value="Map_Smartseille.net.xml"/>
        <route-files value="flows_vf_sorted_by_departure.rou.xml"/>
        <additional-files value="parking_parking1.add.xml"/>
    </input>

    <output>
        <emission-output value="emissions.xml"/>
        <tripinfo-output value="tripinfo.xml"/>
    </output>

    <time>
        <begin value="0"/>
        <end value="7200"/>
    </time>

    <traci_server>
        <remote-port value="52292"/>
    </traci_server>

</sumoConfiguration>
-->

<tripinfos xmlns:xsi="http://www.w3.org/2001/XMLSchema-instance" xsi:noNamespaceSchemaLocation="http://sumo.dlr.de/xsd/tripinfo_file.xsd">
    <tripinfo id="flow2.5" depart="170.00" departLane="98338697#0_0" departPos="5.10" departSpeed="0.00" departDelay="0.00" arrival="254.00" arrivalLane="758926622_0" arrivalPos="154.47" arrivalSpeed="13.87" duration="84.00" routeLength="985.82" waitingTime="0.00" waitingCount="0" stopTime="0.00" timeLoss="10.81" rerouteNo="0" devices="tripinfo_flow2.5 emissions_flow2.5" vType="car" speedFactor="1.05" vaporized="">
        <emissions CO_abs="2942.587663" CO2_abs="240131.417259" HC_abs="18.563060" PMx_abs="3.718976" NOx_abs="92.823706" fuel_abs="76591.081628" electricity_abs="0"/>
    </tripinfo>
    <tripinfo id="flow3.0" depart="187.00" departLane="-758926622_0" departPos="5.10" departSpeed="0.00" departDelay="0.00" arrival="258.00" arrivalLane="1200615233_0" arrivalPos="80.97" arrivalSpeed="12.88" duration="71.00" routeLength="669.44" waitingTime="0.00" waitingCount="0" stopTime="0.00" timeLoss="9.20" rerouteNo="0" devices="tripinfo_flow3.0 emissions_flow3.0" vType="car" speedFactor="1.03" vaporized="">
        <emissions CO_abs="3148.372737" CO2_abs="194240.012677" HC_abs="18.654231" PMx_abs="3.025261" NOx_abs="76.682199" fuel_abs="61954.182088" electricity_abs="0"/>
    </tripinfo>
    <tripinfo id="flow2.5.1" depart="173.00" departLane="98338697#0_0" departPos="5.10" departSpeed="0.00" departDelay="3.00" arrival="259.00" arrivalLane="758926622_0" arrivalPos="154.47" arrivalSpeed="12.71" duration="86.00" routeLength="985.82" waitingTime="0.00" waitingCount="0" stopTime="0.00" timeLoss="13.50" rerouteNo="0" devices="tripinfo_flow2.5.1 emissions_flow2.5.1" vType="car" speedFactor="0.89" vaporized="">
        <emissions CO_abs="3031.853034" CO2_abs="240914.371702" HC_abs="18.996033" PMx_abs="3.729964" NOx_abs="93.569671" fuel_abs="76840.837880" electricity_abs="0"/>
    </tripinfo>
    <tripinfo id="flow3.0.1" depart="190.00" departLane="-758926622_0" departPos="5.10" departSpeed="0.00" departDelay="3.00" arrival="262.00" arrivalLane="1200615233_0" arrivalPos="80.97" arrivalSpeed="13.76" duration="72.00" routeLength="669.44" waitingTime="0.00" waitingCount="0" stopTime="0.00" timeLoss="11.22" rerouteNo="0" devices="tripinfo_flow3.0.1 emissions_flow3.0.1" vType="car" speedFactor="1.05" vaporized="">
        <emissions CO_abs="3416.655437" CO2_abs="205716.975629" HC_abs="20.195970" PMx_abs="3.322052" NOx_abs="82.246418" fuel_abs="65614.748675" electricity_abs="0"/>
    </tripinfo>
    <tripinfo id="flow2.5.2" depart="176.00" departLane="98338697#0_0" departPos="5.10" departSpeed="0.00" departDelay="6.00" arrival="263.00" arrivalLane="758926622_0" arrivalPos="154.47" arrivalSpeed="13.29" duration="87.00" routeLength="985.82" waitingTime="0.00" waitingCount="0" stopTime="0.00" timeLoss="13.68" rerouteNo="0" devices="tripinfo_flow2.5.2 emissions_flow2.5.2" vType="car" speedFactor="0.94" vaporized="">
        <emissions CO_abs="3102.699871" CO2_abs="245287.987159" HC_abs="19.365940" PMx_abs="3.698801" NOx_abs="94.526722" fuel_abs="78235.953998" electricity_abs="0"/>
    </tripinfo>
    <tripinfo id="flow3.0.2" depart="193.00" departLane="-758926622_0" departPos="5.10" departSpeed="0.00" departDelay="6.00" arrival="267.00" arrivalLane="1200615233_0" arrivalPos="80.97" arrivalSpeed="13.38" duration="74.00" routeLength="669.44" waitingTime="0.00" waitingCount="0" stopTime="0.00" timeLoss="14.92" rerouteNo="0" devices="tripinfo_flow3.0.2 emissions_flow3.0.2" vType="car" speedFactor="1.12" vaporized="">
        <emissions CO_abs="3790.947725" CO2_abs="214787.144880" HC_abs="22.142560" PMx_abs="3.684030" NOx_abs="87.391686" fuel_abs="68507.623221" electricity_abs="0"/>
    </tripinfo>
    <tripinfo id="flow2.5.3" depart="179.00" departLane="98338697#0_0" departPos="5.10" departSpeed="0.00" departDelay="9.00" arrival="268.00" arrivalLane="758926622_0" arrivalPos="154.47" arrivalSpeed="13.07" duration="89.00" routeLength="985.82" waitingTime="0.00" waitingCount="0" stopTime="0.00" timeLoss="14.96" rerouteNo="0" devices="tripinfo_flow2.5.3 emissions_flow2.5.3" vType="car" speedFactor="0.86" vaporized="">
        <emissions CO_abs="3311.698907" CO2_abs="250376.837388" HC_abs="20.544049" PMx_abs="3.959575" NOx_abs="98.027600" fuel_abs="79858.936967" electricity_abs="0"/>
    </tripinfo>
    <tripinfo id="flow2.5.4" depart="182.00" departLane="98338697#0_0" departPos="5.10" departSpeed="0.00" departDelay="12.00" arrival="270.00" arrivalLane="758926622_0" arrivalPos="154.47" arrivalSpeed="13.71" duration="88.00" routeLength="985.82" waitingTime="0.00" waitingCount="0" stopTime="0.00" timeLoss="15.26" rerouteNo="0" devices="tripinfo_flow2.5.4 emissions_flow2.5.4" vType="car" speedFactor="1.09" vaporized="">
        <emissions CO_abs="3164.292707" CO2_abs="243402.052968" HC_abs="19.537668" PMx_abs="3.680093" NOx_abs="93.812828" fuel_abs="77634.455769" electricity_abs="0"/>
    </tripinfo>
    <tripinfo id="flow3.0.3" depart="196.00" departLane="-758926622_0" departPos="5.10" departSpeed="0.00" departDelay="9.00" arrival="272.00" arrivalLane="1200615233_0" arrivalPos="80.97" arrivalSpeed="12.63" duration="76.00" routeLength="669.44" waitingTime="0.00" waitingCount="0" stopTime="0.00" timeLoss="13.33" rerouteNo="0" devices="tripinfo_flow3.0.3 emissions_flow3.0.3" vType="car" speedFactor="0.99" vaporized="">
        <emissions CO_abs="3656.221910" CO2_abs="201073.923979" HC_abs="21.184635" PMx_abs="3.261697" NOx_abs="80.566132" fuel_abs="64133.994694" electricity_abs="0"/>
    </tripinfo>
    <tripinfo id="flow3.0.4" depart="199.00" departLane="-758926622_0" departPos="5.10" departSpeed="0.00" departDelay="12.00" arrival="276.00" arrivalLane="1200615233_0" arrivalPos="80.97" arrivalSpeed="11.87" duration="77.00" routeLength="669.44" waitingTime="0.00" waitingCount="0" stopTime="0.00" timeLoss="10.97" rerouteNo="0" devices="tripinfo_flow3.0.4 emissions_flow3.0.4" vType="car" speedFactor="0.93" vaporized="">
        <emissions CO_abs="3224.190261" CO2_abs="184935.926311" HC_abs="18.873218" PMx_abs="2.883805" NOx_abs="73.360916" fuel_abs="58986.715398" electricity_abs="0"/>
    </tripinfo>
    <tripinfo id="flow5.6" depart="259.00" departLane="67209282#0_0" departPos="5.10" departSpeed="0.00" departDelay="0.00" arrival="383.00" arrivalLane="-67504621_0" arrivalPos="163.75" arrivalSpeed="7.90" duration="124.00" routeLength="732.17" waitingTime="21.00" waitingCount="1" stopTime="0.00" timeLoss="34.47" rerouteNo="0" devices="tripinfo_flow5.6 emissions_flow5.6" vType="car_slow" speedFactor="0.92" vaporized="">
        <emissions CO_abs="8241.058498" CO2_abs="263135.449469" HC_abs="43.469387" PMx_abs="4.147178" NOx_abs="105.609588" fuel_abs="83931.254132" electricity_abs="0"/>
    </tripinfo>
    <tripinfo id="flow5.6.1" depart="263.00" departLane="67209282#0_0" departPos="5.10" departSpeed="0.00" departDelay="4.00" arrival="386.00" arrivalLane="-67504621_0" arrivalPos="163.75" arrivalSpeed="7.74" duration="123.00" routeLength="732.17" waitingTime="19.00" waitingCount="1" stopTime="0.00" timeLoss="33.38" rerouteNo="0" devices="tripinfo_flow5.6.1 emissions_flow5.6.1" vType="car_slow" speedFactor="0.95" vaporized="">
        <emissions CO_abs="8161.638322" CO2_abs="264151.789454" HC_abs="43.101713" PMx_abs="3.997117" NOx_abs="104.967684" fuel_abs="84255.547851" electricity_abs="0"/>
    </tripinfo>
    <tripinfo id="flow5.6.2" depart="267.00" departLane="67209282#0_0" departPos="5.10" departSpeed="0.00" departDelay="8.00" arrival="388.00" arrivalLane="-67504621_0" arrivalPos="163.75" arrivalSpeed="7.86" duration="121.00" routeLength="732.17" waitingTime="17.00" waitingCount="1" stopTime="0.00" timeLoss="32.07" rerouteNo="0" devices="tripinfo_flow5.6.2 emissions_flow5.6.2" vType="car_slow" speedFactor="1.13" vaporized="">
        <emissions CO_abs="7719.230371" CO2_abs="248336.268137" HC_abs="40.766354" PMx_abs="3.946738" NOx_abs="99.929403" fuel_abs="79210.740986" electricity_abs="0"/>
    </tripinfo>
    <tripinfo id="flow5.6.3" depart="270.00" departLane="67209282#0_0" departPos="5.10" departSpeed="0.00" departDelay="11.00" arrival="391.00" arrivalLane="-67504621_0" arrivalPos="163.75" arrivalSpeed="8.32" duration="121.00" routeLength="732.17" waitingTime="15.00" waitingCount="1" stopTime="0.00" timeLoss="31.90" rerouteNo="0" devices="tripinfo_flow5.6.3 emissions_flow5.6.3" vType="car_slow" speedFactor="0.93" vaporized="">
        <emissions CO_abs="7472.318326" CO2_abs="247118.901677" HC_abs="39.597620" PMx_abs="3.810136" NOx_abs="98.725507" fuel_abs="78822.439710" electricity_abs="0"/>
    </tripinfo>
    <tripinfo id="flow5.6.4" depart="274.00" departLane="67209282#0_0" departPos="5.10" departSpeed="0.00" departDelay="15.00" arrival="393.00" arrivalLane="-67504621_0" arrivalPos="163.75" arrivalSpeed="8.21" duration="119.00" routeLength="732.17" waitingTime="13.00" waitingCount="1" stopTime="0.00" timeLoss="30.52" rerouteNo="0" devices="tripinfo_flow5.6.4 emissions_flow5.6.4" vType="car_slow" speedFactor="1.18" vaporized="">
        <emissions CO_abs="7287.984130" CO2_abs="243059.777760" HC_abs="38.675334" PMx_abs="3.782633" NOx_abs="97.333356" fuel_abs="77527.639536" electricity_abs="0"/>
    </tripinfo>
    <tripinfo id="flow2.0_bicycle" depart="314.00" departLane="758926614#0_0" departPos="5.10" departSpeed="0.00" departDelay="0.67" arrival="396.00" arrivalLane="758926626_0" arrivalPos="143.98" arrivalSpeed="8.46" duration="82.00" routeLength="880.34" waitingTime="0.00" waitingCount="0" stopTime="0.00" timeLoss="12.50" rerouteNo="0" devices="tripinfo_flow2.0_bicycle emissions_flow2.0_bicycle" vType="car_fast" speedFactor="1.15" vaporized="">
        <emissions CO_abs="3970.995405" CO2_abs="263300.871172" HC_abs="24.038317" PMx_abs="4.570461" NOx_abs="106.201841" fuel_abs="83980.927997" electricity_abs="0"/>
    </tripinfo>
    <tripinfo id="flow2.0_bicycle.1" depart="317.00" departLane="758926614#0_0" departPos="5.10" departSpeed="0.00" departDelay="3.67" arrival="407.00" arrivalLane="758926626_0" arrivalPos="143.98" arrivalSpeed="6.91" duration="90.00" routeLength="880.34" waitingTime="0.00" waitingCount="0" stopTime="0.00" timeLoss="12.15" rerouteNo="0" devices="tripinfo_flow2.0_bicycle.1 emissions_flow2.0_bicycle.1" vType="car_fast" speedFactor="1.01" vaporized="">
        <emissions CO_abs="4240.902442" CO2_abs="256969.121474" HC_abs="25.132548" PMx_abs="4.420032" NOx_abs="103.714121" fuel_abs="81961.661932" electricity_abs="0"/>
    </tripinfo>
    <tripinfo id="flow2.0_bicycle.2" depart="320.00" departLane="758926614#0_0" departPos="5.10" departSpeed="0.00" departDelay="6.67" arrival="409.00" arrivalLane="758926626_0" arrivalPos="143.98" arrivalSpeed="9.33" duration="89.00" routeLength="880.34" waitingTime="0.00" waitingCount="0" stopTime="0.00" timeLoss="20.36" rerouteNo="0" devices="tripinfo_flow2.0_bicycle.2 emissions_flow2.0_bicycle.2" vType="car_fast" speedFactor="1.17" vaporized="">
        <emissions CO_abs="4655.766774" CO2_abs="277364.959006" HC_abs="27.541789" PMx_abs="4.943889" NOx_abs="113.232248" fuel_abs="88466.859605" electricity_abs="0"/>
    </tripinfo>
    <tripinfo id="flow4.1_bicycle" depart="149.00" departLane="-758926622_0" departPos="5.10" departSpeed="0.00" departDelay="0.04" arrival="413.00" arrivalLane="132346057#5_0" arrivalPos="344.19" arrivalSpeed="6.65" duration="264.00" routeLength="1923.34" waitingTime="43.00" waitingCount="2" stopTime="0.00" timeLoss="81.46" rerouteNo="0" devices="tripinfo_flow4.1_bicycle emissions_flow4.1_bicycle" vType="car" speedFactor="0.94" vaporized="">
        <emissions CO_abs="17085.221975" CO2_abs="658411.047532" HC_abs="92.676312" PMx_abs="11.673972" NOx_abs="270.061113" fuel_abs="210007.151778" electricity_abs="0"/>
    </tripinfo>
    <tripinfo id="flow4.1_bicycle.1" depart="152.00" departLane="-758926622_0" departPos="5.10" departSpeed="0.00" departDelay="3.04" arrival="415.00" arrivalLane="132346057#5_0" arrivalPos="344.19" arrivalSpeed="8.00" duration="263.00" routeLength="1923.34" waitingTime="40.00" waitingCount="3" stopTime="0.00" timeLoss="91.42" rerouteNo="0" devices="tripinfo_flow4.1_bicycle.1 emissions_flow4.1_bicycle.1" vType="car" speedFactor="1.01" vaporized="">
        <emissions CO_abs="17556.635834" CO2_abs="690281.721829" HC_abs="95.602068" PMx_abs="12.447722" NOx_abs="284.453251" fuel_abs="220172.170481" electricity_abs="0"/>
    </tripinfo>
    <tripinfo id="flow4.1_bicycle.2" depart="155.00" departLane="-758926622_0" departPos="5.10" departSpeed="0.00" departDelay="6.04" arrival="417.00" arrivalLane="132346057#5_0" arrivalPos="344.19" arrivalSpeed="8.47" duration="262.00" routeLength="1923.34" waitingTime="32.00" waitingCount="2" stopTime="0.00" timeLoss="95.93" rerouteNo="0" devices="tripinfo_flow4.1_bicycle.2 emissions_flow4.1_bicycle.2" vType="car" speedFactor="1.08" vaporized="">
        <emissions CO_abs="16956.268143" CO2_abs="683076.473268" HC_abs="92.723930" PMx_abs="12.264202" NOx_abs="281.216340" fuel_abs="217873.777418" electricity_abs="0"/>
    </tripinfo>
    <tripinfo id="flow4.1_bicycle.3" depart="158.00" departLane="-758926622_0" departPos="5.10" departSpeed="0.00" departDelay="9.04" arrival="419.00" arrivalLane="132346057#5_0" arrivalPos="344.19" arrivalSpeed="7.58" duration="261.00" routeLength="1923.34" waitingTime="30.00" waitingCount="3" stopTime="0.00" timeLoss="91.83" rerouteNo="0" devices="tripinfo_flow4.1_bicycle.3 emissions_flow4.1_bicycle.3" vType="car" speedFactor="1.03" vaporized="">
        <emissions CO_abs="17129.781484" CO2_abs="693975.952350" HC_abs="93.641276" PMx_abs="12.512920" NOx_abs="285.863049" fuel_abs="221350.132209" electricity_abs="0"/>
    </tripinfo>
    <tripinfo id="flow2.0_bicycle.3" depart="323.00" departLane="758926614#0_0" departPos="5.10" departSpeed="0.00" departDelay="9.67" arrival="423.00" arrivalLane="758926626_0" arrivalPos="143.98" arrivalSpeed="7.13" duration="100.00" routeLength="880.34" waitingTime="2.00" waitingCount="1" stopTime="0.00" timeLoss="21.07" rerouteNo="0" devices="tripinfo_flow2.0_bicycle.3 emissions_flow2.0_bicycle.3" vType="car_fast" speedFactor="0.99" vaporized="">
        <emissions CO_abs="5562.994102" CO2_abs="294352.118904" HC_abs="32.029100" PMx_abs="5.114594" NOx_abs="119.818474" fuel_abs="93885.527266" electricity_abs="0"/>
    </tripinfo>
    <tripinfo id="flow4.1_bicycle.4" depart="161.00" departLane="-758926622_0" departPos="5.10" departSpeed="0.00" departDelay="12.04" arrival="437.00" arrivalLane="132346057#5_0" arrivalPos="344.19" arrivalSpeed="6.71" duration="276.00" routeLength="1923.34" waitingTime="18.00" waitingCount="1" stopTime="0.00" timeLoss="74.07" rerouteNo="0" devices="tripinfo_flow4.1_bicycle.4 emissions_flow4.1_bicycle.4" vType="car" speedFactor="0.83" vaporized="">
        <emissions CO_abs="15104.568214" CO2_abs="620181.727539" HC_abs="83.041143" PMx_abs="10.425777" NOx_abs="252.220418" fuel_abs="197813.456823" electricity_abs="0"/>
    </tripinfo>
    <tripinfo id="flow2.0_bicycle.4" depart="326.00" departLane="758926614#0_0" departPos="5.10" departSpeed="0.00" departDelay="12.67" arrival="444.00" arrivalLane="758926626_0" arrivalPos="143.98" arrivalSpeed="8.35" duration="118.00" routeLength="880.34" waitingTime="14.00" waitingCount="1" stopTime="0.00" timeLoss="41.21" rerouteNo="0" devices="tripinfo_flow2.0_bicycle.4 emissions_flow2.0_bicycle.4" vType="car_fast" speedFactor="1.02" vaporized="">
        <emissions CO_abs="8620.755977" CO2_abs="353932.415872" HC_abs="47.453740" PMx_abs="6.716654" NOx_abs="147.911222" fuel_abs="112889.608166" electricity_abs="0"/>
    </tripinfo>
    <tripinfo id="flow5.4" depart="387.00" departLane="67209282#0_0" departPos="5.10" departSpeed="0.00" departDelay="0.00" arrival="454.00" arrivalLane="-67504621_0" arrivalPos="163.75" arrivalSpeed="13.39" duration="67.00" routeLength="732.17" waitingTime="0.00" waitingCount="0" stopTime="0.00" timeLoss="12.74" rerouteNo="0" devices="tripinfo_flow5.4 emissions_flow5.4" vType="car" speedFactor="1.00" vaporized="">
        <emissions CO_abs="2906.203586" CO2_abs="209357.530285" HC_abs="17.768630" PMx_abs="3.376585" NOx_abs="82.806888" fuel_abs="66775.602136" electricity_abs="0"/>
    </tripinfo>
    <tripinfo id="flow5.4.1" depart="390.00" departLane="67209282#0_0" departPos="5.10" departSpeed="0.00" departDelay="3.00" arrival="459.00" arrivalLane="-67504621_0" arrivalPos="163.75" arrivalSpeed="11.86" duration="69.00" routeLength="732.17" waitingTime="0.00" waitingCount="0" stopTime="0.00" timeLoss="10.97" rerouteNo="0" devices="tripinfo_flow5.4.1 emissions_flow5.4.1" vType="car" speedFactor="0.90" vaporized="">
        <emissions CO_abs="2718.769205" CO2_abs="193801.721971" HC_abs="16.629683" PMx_abs="3.060297" NOx_abs="76.132339" fuel_abs="61814.111908" electricity_abs="0"/>
    </tripinfo>
    <tripinfo id="flow5.4.2" depart="393.00" departLane="67209282#0_0" departPos="5.10" departSpeed="0.00" departDelay="6.00" arrival="464.00" arrivalLane="-67504621_0" arrivalPos="163.75" arrivalSpeed="11.92" duration="71.00" routeLength="732.17" waitingTime="0.00" waitingCount="0" stopTime="0.00" timeLoss="11.51" rerouteNo="0" devices="tripinfo_flow5.4.2 emissions_flow5.4.2" vType="car" speedFactor="0.88" vaporized="">
        <emissions CO_abs="2759.747150" CO2_abs="193652.372093" HC_abs="16.966459" PMx_abs="3.050511" NOx_abs="76.474947" fuel_abs="61766.505529" electricity_abs="0"/>
    </tripinfo>
    <tripinfo id="flow5.4.3" depart="396.00" departLane="67209282#0_0" departPos="5.10" departSpeed="0.00" departDelay="9.00" arrival="468.00" arrivalLane="-67504621_0" arrivalPos="163.75" arrivalSpeed="11.04" duration="72.00" routeLength="732.17" waitingTime="0.00" waitingCount="0" stopTime="0.00" timeLoss="11.33" rerouteNo="0" devices="tripinfo_flow5.4.3 emissions_flow5.4.3" vType="car" speedFactor="0.85" vaporized="">
        <emissions CO_abs="2720.504209" CO2_abs="193125.282392" HC_abs="16.591352" PMx_abs="2.964237" NOx_abs="75.488092" fuel_abs="61598.454283" electricity_abs="0"/>
    </tripinfo>
    <tripinfo id="flow5.4.4" depart="399.00" departLane="67209282#0_0" departPos="5.10" departSpeed="0.00" departDelay="12.00" arrival="471.00" arrivalLane="-67504621_0" arrivalPos="163.75" arrivalSpeed="11.34" duration="72.00" routeLength="732.17" waitingTime="0.00" waitingCount="0" stopTime="0.00" timeLoss="11.89" rerouteNo="0" devices="tripinfo_flow5.4.4 emissions_flow5.4.4" vType="car" speedFactor="0.85" vaporized="">
        <emissions CO_abs="3034.523989" CO2_abs="199536.979851" HC_abs="18.431664" PMx_abs="3.282582" NOx_abs="79.901844" fuel_abs="63643.388380" electricity_abs="0"/>
    </tripinfo>
    <tripinfo id="flow5.0_bus" depart="422.00" departLane="67209282#0_0" departPos="5.10" departSpeed="0.00" departDelay="0.48" arrival="486.00" arrivalLane="-67504621_0" arrivalPos="163.75" arrivalSpeed="12.71" duration="64.00" routeLength="732.17" waitingTime="0.00" waitingCount="0" stopTime="0.00" timeLoss="10.04" rerouteNo="0" devices="tripinfo_flow5.0_bus emissions_flow5.0_bus" vType="car" speedFactor="1.12" vaporized="">
        <emissions CO_abs="2483.441547" CO2_abs="192493.284659" HC_abs="15.608587" PMx_abs="3.044487" NOx_abs="75.443793" fuel_abs="61396.662342" electricity_abs="0"/>
    </tripinfo>
    <tripinfo id="flow4.0" depart="202.00" departLane="-758926622_0" departPos="5.10" departSpeed="0.00" departDelay="4.00" arrival="496.00" arrivalLane="132346057#5_0" arrivalPos="344.19" arrivalSpeed="6.58" duration="294.00" routeLength="1923.34" waitingTime="25.00" waitingCount="1" stopTime="0.00" timeLoss="50.29" rerouteNo="0" devices="tripinfo_flow4.0 emissions_flow4.0" vType="car_slow" speedFactor="0.88" vaporized="">
        <emissions CO_abs="15836.280613" CO2_abs="583878.436318" HC_abs="85.196673" PMx_abs="8.325167" NOx_abs="229.219116" fuel_abs="186236.748921" electricity_abs="0"/>
    </tripinfo>
    <tripinfo id="flow4.0.1" depart="206.00" departLane="-758926622_0" departPos="5.10" departSpeed="0.00" departDelay="8.00" arrival="515.00" arrivalLane="132346057#5_0" arrivalPos="344.19" arrivalSpeed="7.42" duration="309.00" routeLength="1923.34" waitingTime="38.00" waitingCount="2" stopTime="0.00" timeLoss="71.50" rerouteNo="0" devices="tripinfo_flow4.0.1 emissions_flow4.0.1" vType="car_slow" speedFactor="0.94" vaporized="">
        <emissions CO_abs="18651.144528" CO2_abs="636080.707680" HC_abs="99.222382" PMx_abs="9.463327" NOx_abs="251.922615" fuel_abs="202887.910790" electricity_abs="0"/>
    </tripinfo>
    <tripinfo id="flow4.0.2" depart="210.00" departLane="-758926622_0" departPos="5.10" departSpeed="0.00" departDelay="12.00" arrival="518.00" arrivalLane="132346057#5_0" arrivalPos="344.19" arrivalSpeed="7.71" duration="308.00" routeLength="1923.34" waitingTime="33.00" waitingCount="2" stopTime="0.00" timeLoss="69.58" rerouteNo="0" devices="tripinfo_flow4.0.2 emissions_flow4.0.2" vType="car_slow" speedFactor="0.94" vaporized="">
        <emissions CO_abs="18260.357690" CO2_abs="630051.247654" HC_abs="97.332144" PMx_abs="9.476055" NOx_abs="250.302534" fuel_abs="200964.459821" electricity_abs="0"/>
    </tripinfo>
    <tripinfo id="flow4.0.3" depart="214.00" departLane="-758926622_0" departPos="5.10" departSpeed="0.00" departDelay="16.00" arrival="520.00" arrivalLane="132346057#5_0" arrivalPos="344.19" arrivalSpeed="8.12" duration="306.00" routeLength="1923.34" waitingTime="33.00" waitingCount="2" stopTime="0.00" timeLoss="73.82" rerouteNo="0" devices="tripinfo_flow4.0.3 emissions_flow4.0.3" vType="car_slow" speedFactor="1.16" vaporized="">
        <emissions CO_abs="18048.724626" CO2_abs="627099.696528" HC_abs="96.299049" PMx_abs="9.392013" NOx_abs="248.819971" fuel_abs="200022.986604" electricity_abs="0"/>
    </tripinfo>
    <tripinfo id="flow1.0_bicycle" depart="392.00" departLane="-355037966#4_0" departPos="5.10" departSpeed="0.00" departDelay="0.54" arrival="520.00" arrivalLane="758926622_0" arrivalPos="154.47" arrivalSpeed="12.84" duration="128.00" routeLength="1332.87" waitingTime="0.00" waitingCount="0" stopTime="0.00" timeLoss="20.60" rerouteNo="0" devices="tripinfo_flow1.0_bicycle emissions_flow1.0_bicycle" vType="car" speedFactor="1.17" vaporized="">
        <emissions CO_abs="5365.995663" CO2_abs="363521.905972" HC_abs="32.653184" PMx_abs="5.761224" NOx_abs="143.561771" fuel_abs="115947.421684" electricity_abs="0"/>
    </tripinfo>
    <tripinfo id="flow4.0.4" depart="218.00" departLane="-758926622_0" departPos="5.10" departSpeed="0.00" departDelay="20.00" arrival="522.00" arrivalLane="132346057#5_0" arrivalPos="344.19" arrivalSpeed="8.19" duration="304.00" routeLength="1923.34" waitingTime="28.00" waitingCount="2" stopTime="0.00" timeLoss="71.45" rerouteNo="0" devices="tripinfo_flow4.0.4 emissions_flow4.0.4" vType="car_slow" speedFactor="1.02" vaporized="">
        <emissions CO_abs="17897.670849" CO2_abs="634436.479551" HC_abs="95.812557" PMx_abs="9.637144" NOx_abs="252.669419" fuel_abs="202362.776848" electricity_abs="0"/>
    </tripinfo>
    <tripinfo id="flow1.0_bicycle.1" depart="395.00" departLane="-355037966#4_0" departPos="5.10" departSpeed="0.00" departDelay="3.54" arrival="526.00" arrivalLane="758926622_0" arrivalPos="154.47" arrivalSpeed="13.41" duration="131.00" routeLength="1332.87" waitingTime="0.00" waitingCount="0" stopTime="0.00" timeLoss="19.15" rerouteNo="0" devices="tripinfo_flow1.0_bicycle.1 emissions_flow1.0_bicycle.1" vType="car" speedFactor="1.02" vaporized="">
        <emissions CO_abs="5540.492425" CO2_abs="366972.252349" HC_abs="33.373403" PMx_abs="5.766616" NOx_abs="144.175215" fuel_abs="117048.066637" electricity_abs="0"/>
    </tripinfo>
    <tripinfo id="flow1.0_bicycle.2" depart="398.00" departLane="-355037966#4_0" departPos="5.10" departSpeed="0.00" departDelay="6.54" arrival="529.00" arrivalLane="758926622_0" arrivalPos="154.47" arrivalSpeed="13.52" duration="131.00" routeLength="1332.87" waitingTime="0.00" waitingCount="0" stopTime="0.00" timeLoss="22.16" rerouteNo="0" devices="tripinfo_flow1.0_bicycle.2 emissions_flow1.0_bicycle.2" vType="car" speedFactor="1.10" vaporized="">
        <emissions CO_abs="5352.569735" CO2_abs="355782.874408" HC_abs="32.377944" PMx_abs="5.681630" NOx_abs="140.624243" fuel_abs="113479.023304" electricity_abs="0"/>
    </tripinfo>
    <tripinfo id="flow1.0_bicycle.3" depart="401.00" departLane="-355037966#4_0" departPos="5.10" departSpeed="0.00" departDelay="9.54" arrival="533.00" arrivalLane="758926622_0" arrivalPos="154.47" arrivalSpeed="12.80" duration="132.00" routeLength="1332.87" waitingTime="0.00" waitingCount="0" stopTime="0.00" timeLoss="19.96" rerouteNo="0" devices="tripinfo_flow1.0_bicycle.3 emissions_flow1.0_bicycle.3" vType="car" speedFactor="1.00" vaporized="">
        <emissions CO_abs="5046.999486" CO2_abs="341301.716703" HC_abs="30.367598" PMx_abs="5.270866" NOx_abs="133.398603" fuel_abs="108860.313449" electricity_abs="0"/>
    </tripinfo>
    <tripinfo id="flow1.0_bicycle.4" depart="404.00" departLane="-355037966#4_0" departPos="5.10" departSpeed="0.00" departDelay="12.54" arrival="537.00" arrivalLane="758926622_0" arrivalPos="154.47" arrivalSpeed="13.79" duration="133.00" routeLength="1332.87" waitingTime="0.00" waitingCount="0" stopTime="0.00" timeLoss="19.68" rerouteNo="0" devices="tripinfo_flow1.0_bicycle.4 emissions_flow1.0_bicycle.4" vType="car" speedFactor="1.00" vaporized="">
        <emissions CO_abs="5165.296435" CO2_abs="349195.461636" HC_abs="31.211310" PMx_abs="5.361207" NOx_abs="136.343193" fuel_abs="111378.123477" electricity_abs="0"/>
    </tripinfo>
    <tripinfo id="flow5.0_bus.1" depart="425.00" departLane="67209282#0_0" departPos="5.10" departSpeed="0.00" departDelay="3.48" arrival="539.00" arrivalLane="-67504621_0" arrivalPos="163.75" arrivalSpeed="12.65" duration="114.00" routeLength="732.17" waitingTime="46.00" waitingCount="1" stopTime="0.00" timeLoss="58.88" rerouteNo="0" devices="tripinfo_flow5.0_bus.1 emissions_flow5.0_bus.1" vType="car" speedFactor="1.02" vaporized="">
        <emissions CO_abs="10602.729219" CO2_abs="324710.404925" HC_abs="55.650324" PMx_abs="6.317038" NOx_abs="135.923949" fuel_abs="103570.615333" electricity_abs="0"/>
    </tripinfo>
    <tripinfo id="flow5.0_bus.2" depart="428.00" departLane="67209282#0_0" departPos="5.10" departSpeed="0.00" departDelay="6.48" arrival="542.00" arrivalLane="-67504621_0" arrivalPos="163.75" arrivalSpeed="13.21" duration="114.00" routeLength="732.17" waitingTime="44.00" waitingCount="1" stopTime="0.00" timeLoss="58.47" rerouteNo="0" devices="tripinfo_flow5.0_bus.2 emissions_flow5.0_bus.2" vType="car" speedFactor="0.99" vaporized="">
        <emissions CO_abs="10383.601682" CO2_abs="328384.165469" HC_abs="54.716161" PMx_abs="6.308397" NOx_abs="136.712127" fuel_abs="104742.299860" electricity_abs="0"/>
    </tripinfo>
    <tripinfo id="flow5.0_bus.3" depart="431.00" departLane="67209282#0_0" departPos="5.10" departSpeed="0.00" departDelay="9.48" arrival="546.00" arrivalLane="-67504621_0" arrivalPos="163.75" arrivalSpeed="12.46" duration="115.00" routeLength="732.17" waitingTime="42.00" waitingCount="1" stopTime="0.00" timeLoss="57.32" rerouteNo="0" devices="tripinfo_flow5.0_bus.3 emissions_flow5.0_bus.3" vType="car" speedFactor="0.94" vaporized="">
        <emissions CO_abs="10070.911375" CO2_abs="315319.831362" HC_abs="52.977265" PMx_abs="6.086547" NOx_abs="131.784350" fuel_abs="100575.282873" electricity_abs="0"/>
    </tripinfo>
    <tripinfo id="flow5.0_bus.4" depart="434.00" departLane="67209282#0_0" departPos="5.10" departSpeed="0.00" departDelay="12.48" arrival="550.00" arrivalLane="-67504621_0" arrivalPos="163.75" arrivalSpeed="12.01" duration="116.00" routeLength="732.17" waitingTime="40.00" waitingCount="1" stopTime="0.00" timeLoss="56.56" rerouteNo="0" devices="tripinfo_flow5.0_bus.4 emissions_flow5.0_bus.4" vType="car" speedFactor="0.88" vaporized="">
        <emissions CO_abs="10176.026833" CO2_abs="314925.634839" HC_abs="53.470740" PMx_abs="6.128860" NOx_abs="132.224477" fuel_abs="100449.540059" electricity_abs="0"/>
    </tripinfo>
    <tripinfo id="flow5.1" depart="443.00" departLane="67209282#0_0" departPos="5.10" departSpeed="0.00" departDelay="0.00" arrival="553.00" arrivalLane="-67504621_0" arrivalPos="163.75" arrivalSpeed="12.08" duration="110.00" routeLength="732.17" waitingTime="34.00" waitingCount="1" stopTime="0.00" timeLoss="51.76" rerouteNo="0" devices="tripinfo_flow5.1 emissions_flow5.1" vType="car" speedFactor="0.91" vaporized="">
        <emissions CO_abs="9342.589261" CO2_abs="304936.322311" HC_abs="49.650147" PMx_abs="5.951042" NOx_abs="128.457482" fuel_abs="97262.979066" electricity_abs="0"/>
    </tripinfo>