<?xml version="1.0" encoding="UTF-8"?>

<!-- generated on 2024-11-13 05:52:22 by Eclipse SUMO GUI Version 1.21.0
<sumoConfiguration xmlns:xsi="http://www.w3.org/2001/XMLSchema-instance" xsi:noNamespaceSchemaLocation="http://sumo.dlr.de/xsd/sumoConfiguration.xsd">

    <input>
        <net-file value="Map_Smartseille.net.xml"/>
        <route-files value="flows_vf_sorted_by_departure.rou.xml"/>
        <additional-files value="parking_parking1.add.xml"/>
    </input>

    <output>
        <emission-output value="emissions.xml"/>
        <tripinfo-output value="tripinfo.xml"/>
    </output>

    <time>
        <begin value="0"/>
        <end value="7200"/>
    </time>

    <traci_server>
        <remote-port value="50527"/>
    </traci_server>

</sumoConfiguration>
-->

<tripinfos xmlns:xsi="http://www.w3.org/2001/XMLSchema-instance" xsi:noNamespaceSchemaLocation="http://sumo.dlr.de/xsd/tripinfo_file.xsd">
    <tripinfo id="flow2.5" depart="170.00" departLane="98338697#0_0" departPos="5.10" departSpeed="0.00" departDelay="0.00" arrival="255.00" arrivalLane="758926622_0" arrivalPos="154.47" arrivalSpeed="12.63" duration="85.00" routeLength="985.82" waitingTime="0.00" waitingCount="0" stopTime="0.00" timeLoss="12.05" rerouteNo="0" devices="tripinfo_flow2.5 emissions_flow2.5" vType="car" speedFactor="0.94" vaporized="">
        <emissions CO_abs="2917.302864" CO2_abs="242375.250045" HC_abs="18.612612" PMx_abs="3.710902" NOx_abs="93.629961" fuel_abs="77306.784691" electricity_abs="0"/>
    </tripinfo>
    <tripinfo id="flow2.5.1" depart="173.00" departLane="98338697#0_0" departPos="5.10" departSpeed="0.00" departDelay="3.00" arrival="259.00" arrivalLane="758926622_0" arrivalPos="154.47" arrivalSpeed="13.45" duration="86.00" routeLength="985.82" waitingTime="0.00" waitingCount="0" stopTime="0.00" timeLoss="13.20" rerouteNo="0" devices="tripinfo_flow2.5.1 emissions_flow2.5.1" vType="car" speedFactor="0.86" vaporized="">
        <emissions CO_abs="3085.762117" CO2_abs="247179.648452" HC_abs="19.555445" PMx_abs="3.870320" NOx_abs="96.486590" fuel_abs="78839.127005" electricity_abs="0"/>
    </tripinfo>
    <tripinfo id="flow2.5.2" depart="176.00" departLane="98338697#0_0" departPos="5.10" departSpeed="0.00" departDelay="6.00" arrival="263.00" arrivalLane="758926622_0" arrivalPos="154.47" arrivalSpeed="12.97" duration="87.00" routeLength="985.82" waitingTime="0.00" waitingCount="0" stopTime="0.00" timeLoss="13.58" rerouteNo="0" devices="tripinfo_flow2.5.2 emissions_flow2.5.2" vType="car" speedFactor="1.09" vaporized="">
        <emissions CO_abs="3268.085278" CO2_abs="241513.639674" HC_abs="20.029568" PMx_abs="3.820937" NOx_abs="94.302349" fuel_abs="77032.019034" electricity_abs="0"/>
    </tripinfo>
    <tripinfo id="flow3.0" depart="187.00" departLane="-758926622_0" departPos="5.10" departSpeed="0.00" departDelay="0.00" arrival="263.00" arrivalLane="1200615233_0" arrivalPos="80.97" arrivalSpeed="12.72" duration="76.00" routeLength="669.44" waitingTime="0.00" waitingCount="0" stopTime="0.00" timeLoss="9.95" rerouteNo="0" devices="tripinfo_flow3.0 emissions_flow3.0" vType="car" speedFactor="0.93" vaporized="">
        <emissions CO_abs="3400.317306" CO2_abs="190240.554323" HC_abs="19.733658" PMx_abs="2.967464" NOx_abs="75.512076" fuel_abs="60678.704664" electricity_abs="0"/>
    </tripinfo>
    <tripinfo id="flow2.5.3" depart="179.00" departLane="98338697#0_0" departPos="5.10" departSpeed="0.00" departDelay="9.00" arrival="266.00" arrivalLane="758926622_0" arrivalPos="154.47" arrivalSpeed="12.98" duration="87.00" routeLength="985.82" waitingTime="0.00" waitingCount="0" stopTime="0.00" timeLoss="13.69" rerouteNo="0" devices="tripinfo_flow2.5.3 emissions_flow2.5.3" vType="car" speedFactor="1.03" vaporized="">
        <emissions CO_abs="3133.066626" CO2_abs="243628.190532" HC_abs="19.727228" PMx_abs="3.876709" NOx_abs="95.671221" fuel_abs="77706.353261" electricity_abs="0"/>
    </tripinfo>
    <tripinfo id="flow2.5.4" depart="182.00" departLane="98338697#0_0" departPos="5.10" departSpeed="0.00" departDelay="12.00" arrival="269.00" arrivalLane="758926622_0" arrivalPos="154.47" arrivalSpeed="12.89" duration="87.00" routeLength="985.82" waitingTime="0.00" waitingCount="0" stopTime="0.00" timeLoss="14.29" rerouteNo="0" devices="tripinfo_flow2.5.4 emissions_flow2.5.4" vType="car" speedFactor="1.05" vaporized="">
        <emissions CO_abs="3020.768004" CO2_abs="237482.487593" HC_abs="18.987008" PMx_abs="3.729815" NOx_abs="92.738576" fuel_abs="75746.188557" electricity_abs="0"/>
    </tripinfo>
    <tripinfo id="flow3.0.1" depart="190.00" departLane="-758926622_0" departPos="5.10" departSpeed="0.00" departDelay="3.00" arrival="270.00" arrivalLane="1200615233_0" arrivalPos="80.97" arrivalSpeed="11.10" duration="80.00" routeLength="669.44" waitingTime="0.00" waitingCount="0" stopTime="0.00" timeLoss="9.97" rerouteNo="0" devices="tripinfo_flow3.0.1 emissions_flow3.0.1" vType="car" speedFactor="0.88" vaporized="">
        <emissions CO_abs="3654.519003" CO2_abs="192157.780007" HC_abs="20.966465" PMx_abs="2.903233" NOx_abs="75.841119" fuel_abs="61290.470115" electricity_abs="0"/>
    </tripinfo>
    <tripinfo id="flow2.5.5" depart="185.00" departLane="98338697#0_0" departPos="5.10" departSpeed="0.00" departDelay="15.00" arrival="272.00" arrivalLane="758926622_0" arrivalPos="154.47" arrivalSpeed="12.96" duration="87.00" routeLength="985.82" waitingTime="0.00" waitingCount="0" stopTime="0.00" timeLoss="14.09" rerouteNo="0" devices="tripinfo_flow2.5.5 emissions_flow2.5.5" vType="car" speedFactor="1.12" vaporized="">
        <emissions CO_abs="3121.930718" CO2_abs="248418.970796" HC_abs="19.605847" PMx_abs="3.835019" NOx_abs="96.452376" fuel_abs="79234.475809" electricity_abs="0"/>
    </tripinfo>
    <tripinfo id="flow3.0.2" depart="193.00" departLane="-758926622_0" departPos="5.10" departSpeed="0.00" departDelay="6.00" arrival="273.00" arrivalLane="1200615233_0" arrivalPos="80.97" arrivalSpeed="12.28" duration="80.00" routeLength="669.44" waitingTime="0.00" waitingCount="0" stopTime="0.00" timeLoss="14.27" rerouteNo="0" devices="tripinfo_flow3.0.2 emissions_flow3.0.2" vType="car" speedFactor="0.94" vaporized="">
        <emissions CO_abs="3627.577834" CO2_abs="198096.461609" HC_abs="20.904886" PMx_abs="3.086456" NOx_abs="78.562413" fuel_abs="63184.465883" electricity_abs="0"/>
    </tripinfo>
    <tripinfo id="flow2.5.6" depart="188.00" departLane="98338697#0_0" departPos="5.10" departSpeed="0.00" departDelay="18.00" arrival="276.00" arrivalLane="758926622_0" arrivalPos="154.47" arrivalSpeed="13.79" duration="88.00" routeLength="985.82" waitingTime="0.00" waitingCount="0" stopTime="0.00" timeLoss="15.07" rerouteNo="0" devices="tripinfo_flow2.5.6 emissions_flow2.5.6" vType="car" speedFactor="0.99" vaporized="">
        <emissions CO_abs="3020.020059" CO2_abs="246953.085068" HC_abs="19.118912" PMx_abs="3.771014" NOx_abs="95.619236" fuel_abs="78766.921006" electricity_abs="0"/>
    </tripinfo>
    <tripinfo id="flow3.0.3" depart="195.00" departLane="-758926622_0" departPos="5.10" departSpeed="0.00" departDelay="8.00" arrival="278.00" arrivalLane="1200615233_0" arrivalPos="80.97" arrivalSpeed="12.00" duration="83.00" routeLength="669.44" waitingTime="0.00" waitingCount="0" stopTime="0.00" timeLoss="17.07" rerouteNo="0" devices="tripinfo_flow3.0.3 emissions_flow3.0.3" vType="car" speedFactor="0.94" vaporized="">
        <emissions CO_abs="4331.533080" CO2_abs="211280.394367" HC_abs="24.498892" PMx_abs="3.562376" NOx_abs="85.749980" fuel_abs="67389.572837" electricity_abs="0"/>
    </tripinfo>
    <tripinfo id="flow3.0.4" depart="199.00" departLane="-758926622_0" departPos="5.10" departSpeed="0.00" departDelay="12.00" arrival="282.00" arrivalLane="1200615233_0" arrivalPos="80.97" arrivalSpeed="13.37" duration="83.00" routeLength="669.44" waitingTime="0.00" waitingCount="0" stopTime="0.00" timeLoss="25.46" rerouteNo="0" devices="tripinfo_flow3.0.4 emissions_flow3.0.4" vType="car" speedFactor="1.16" vaporized="">
        <emissions CO_abs="4250.014969" CO2_abs="208988.320437" HC_abs="24.093086" PMx_abs="3.629996" NOx_abs="85.481728" fuel_abs="66658.348590" electricity_abs="0"/>
    </tripinfo>
    <tripinfo id="flow3.0.5" depart="202.00" departLane="-758926622_0" departPos="5.10" departSpeed="0.00" departDelay="15.00" arrival="288.00" arrivalLane="1200615233_0" arrivalPos="80.97" arrivalSpeed="13.35" duration="86.00" routeLength="669.44" waitingTime="1.00" waitingCount="1" stopTime="0.00" timeLoss="23.95" rerouteNo="0" devices="tripinfo_flow3.0.5 emissions_flow3.0.5" vType="car" speedFactor="1.02" vaporized="">
        <emissions CO_abs="4913.002367" CO2_abs="233851.305439" HC_abs="27.776805" PMx_abs="4.260575" NOx_abs="96.978891" fuel_abs="74588.458056" electricity_abs="0"/>
    </tripinfo>
    <tripinfo id="flow3.0.6" depart="205.00" departLane="-758926622_0" departPos="5.10" departSpeed="0.00" departDelay="18.00" arrival="293.00" arrivalLane="1200615233_0" arrivalPos="80.97" arrivalSpeed="13.01" duration="88.00" routeLength="669.44" waitingTime="1.00" waitingCount="1" stopTime="0.00" timeLoss="25.55" rerouteNo="0" devices="tripinfo_flow3.0.6 emissions_flow3.0.6" vType="car" speedFactor="1.01" vaporized="">
        <emissions CO_abs="4920.325941" CO2_abs="236000.917928" HC_abs="27.754423" PMx_abs="4.094577" NOx_abs="96.338553" fuel_abs="75274.304912" electricity_abs="0"/>
    </tripinfo>
    <tripinfo id="flow5.6" depart="259.00" departLane="67209282#0_0" departPos="5.10" departSpeed="0.00" departDelay="0.00" arrival="383.00" arrivalLane="-67504621_0" arrivalPos="163.75" arrivalSpeed="7.85" duration="124.00" routeLength="732.17" waitingTime="22.00" waitingCount="1" stopTime="0.00" timeLoss="34.63" rerouteNo="0" devices="tripinfo_flow5.6 emissions_flow5.6" vType="car_slow" speedFactor="0.97" vaporized="">
        <emissions CO_abs="8441.481413" CO2_abs="269406.751996" HC_abs="44.498125" PMx_abs="4.114463" NOx_abs="107.279235" fuel_abs="85931.737717" electricity_abs="0"/>
    </tripinfo>
    <tripinfo id="flow5.6.1" depart="263.00" departLane="67209282#0_0" departPos="5.10" departSpeed="0.00" departDelay="4.00" arrival="385.00" arrivalLane="-67504621_0" arrivalPos="163.75" arrivalSpeed="8.20" duration="122.00" routeLength="732.17" waitingTime="19.00" waitingCount="1" stopTime="0.00" timeLoss="33.21" rerouteNo="0" devices="tripinfo_flow5.6.1 emissions_flow5.6.1" vType="car_slow" speedFactor="1.18" vaporized="">
        <emissions CO_abs="7842.417717" CO2_abs="253030.137981" HC_abs="41.452464" PMx_abs="4.114983" NOx_abs="102.406864" fuel_abs="80707.804944" electricity_abs="0"/>
    </tripinfo>
    <tripinfo id="flow5.6.2" depart="267.00" departLane="67209282#0_0" departPos="5.10" departSpeed="0.00" departDelay="8.00" arrival="388.00" arrivalLane="-67504621_0" arrivalPos="163.75" arrivalSpeed="7.64" duration="121.00" routeLength="732.17" waitingTime="17.00" waitingCount="1" stopTime="0.00" timeLoss="31.74" rerouteNo="0" devices="tripinfo_flow5.6.2 emissions_flow5.6.2" vType="car_slow" speedFactor="1.10" vaporized="">
        <emissions CO_abs="7729.877080" CO2_abs="256881.212578" HC_abs="40.982425" PMx_abs="3.904947" NOx_abs="102.168273" fuel_abs="81936.328290" electricity_abs="0"/>
    </tripinfo>
    <tripinfo id="flow5.6.3" depart="270.00" departLane="67209282#0_0" departPos="5.10" departSpeed="0.00" departDelay="11.00" arrival="391.00" arrivalLane="-67504621_0" arrivalPos="163.75" arrivalSpeed="8.25" duration="121.00" routeLength="732.17" waitingTime="16.00" waitingCount="1" stopTime="0.00" timeLoss="31.43" rerouteNo="0" devices="tripinfo_flow5.6.3 emissions_flow5.6.3" vType="car_slow" speedFactor="0.90" vaporized="">
        <emissions CO_abs="7668.290649" CO2_abs="248146.473963" HC_abs="40.520844" PMx_abs="3.890329" NOx_abs="99.530531" fuel_abs="79150.233358" electricity_abs="0"/>
    </tripinfo>
    <tripinfo id="flow5.6.4" depart="274.00" departLane="67209282#0_0" departPos="5.10" departSpeed="0.00" departDelay="15.00" arrival="394.00" arrivalLane="-67504621_0" arrivalPos="163.75" arrivalSpeed="7.80" duration="120.00" routeLength="732.17" waitingTime="13.00" waitingCount="1" stopTime="0.00" timeLoss="30.62" rerouteNo="0" devices="tripinfo_flow5.6.4 emissions_flow5.6.4" vType="car_slow" speedFactor="1.03" vaporized="">
        <emissions CO_abs="7471.044406" CO2_abs="246526.915093" HC_abs="39.591619" PMx_abs="3.871101" NOx_abs="98.933032" fuel_abs="78633.548106" electricity_abs="0"/>
    </tripinfo>
    <tripinfo id="flow5.6.5" depart="278.00" departLane="67209282#0_0" departPos="5.10" departSpeed="0.00" departDelay="19.00" arrival="396.00" arrivalLane="-67504621_0" arrivalPos="163.75" arrivalSpeed="7.69" duration="118.00" routeLength="732.17" waitingTime="12.00" waitingCount="1" stopTime="0.00" timeLoss="29.13" rerouteNo="0" devices="tripinfo_flow5.6.5 emissions_flow5.6.5" vType="car_slow" speedFactor="0.96" vaporized="">
        <emissions CO_abs="7186.583607" CO2_abs="245387.357603" HC_abs="38.252782" PMx_abs="3.724810" NOx_abs="97.689854" fuel_abs="78270.052229" electricity_abs="0"/>
    </tripinfo>
    <tripinfo id="flow5.6.6" depart="282.00" departLane="67209282#0_0" departPos="5.10" departSpeed="0.00" departDelay="23.00" arrival="399.00" arrivalLane="-67504621_0" arrivalPos="163.75" arrivalSpeed="7.66" duration="117.00" routeLength="732.17" waitingTime="10.00" waitingCount="1" stopTime="0.00" timeLoss="28.12" rerouteNo="0" devices="tripinfo_flow5.6.6 emissions_flow5.6.6" vType="car_slow" speedFactor="1.09" vaporized="">
        <emissions CO_abs="6964.544728" CO2_abs="243171.533599" HC_abs="37.188840" PMx_abs="3.650471" NOx_abs="96.539348" fuel_abs="77563.228048" electricity_abs="0"/>
    </tripinfo>
    <tripinfo id="flow2.0_bicycle" depart="314.00" departLane="758926614#0_0" departPos="5.10" departSpeed="0.00" departDelay="0.67" arrival="409.00" arrivalLane="758926626_0" arrivalPos="143.98" arrivalSpeed="8.22" duration="95.00" routeLength="880.34" waitingTime="2.00" waitingCount="1" stopTime="0.00" timeLoss="18.58" rerouteNo="0" devices="tripinfo_flow2.0_bicycle emissions_flow2.0_bicycle" vType="car_fast" speedFactor="1.04" vaporized="">
        <emissions CO_abs="5512.459509" CO2_abs="293826.327781" HC_abs="31.780115" PMx_abs="5.236097" NOx_abs="120.199899" fuel_abs="93717.656220" electricity_abs="0"/>
    </tripinfo>
    <tripinfo id="flow2.0_bicycle.1" depart="316.00" departLane="758926614#0_0" departPos="5.10" departSpeed="0.00" departDelay="2.67" arrival="412.00" arrivalLane="758926626_0" arrivalPos="143.98" arrivalSpeed="8.26" duration="96.00" routeLength="880.34" waitingTime="0.00" waitingCount="0" stopTime="0.00" timeLoss="19.94" rerouteNo="0" devices="tripinfo_flow2.0_bicycle.1 emissions_flow2.0_bicycle.1" vType="car_fast" speedFactor="1.04" vaporized="">
        <emissions CO_abs="5271.253499" CO2_abs="287942.524072" HC_abs="30.667112" PMx_abs="5.085578" NOx_abs="117.703894" fuel_abs="91840.961380" electricity_abs="0"/>
    </tripinfo>
    <tripinfo id="flow2.0_bicycle.2" depart="319.00" departLane="758926614#0_0" departPos="5.10" departSpeed="0.00" departDelay="5.67" arrival="414.00" arrivalLane="758926626_0" arrivalPos="143.98" arrivalSpeed="8.44" duration="95.00" routeLength="880.34" waitingTime="1.00" waitingCount="1" stopTime="0.00" timeLoss="22.06" rerouteNo="0" devices="tripinfo_flow2.0_bicycle.2 emissions_flow2.0_bicycle.2" vType="car_fast" speedFactor="1.09" vaporized="">
        <emissions CO_abs="5454.146595" CO2_abs="295760.675288" HC_abs="31.574557" PMx_abs="5.326726" NOx_abs="121.325411" fuel_abs="94334.494693" electricity_abs="0"/>
    </tripinfo>
    <tripinfo id="flow4.1_bicycle" depart="149.00" departLane="-758926622_0" departPos="5.10" departSpeed="0.00" departDelay="0.04" arrival="419.00" arrivalLane="132346057#5_0" arrivalPos="344.19" arrivalSpeed="6.94" duration="270.00" routeLength="1923.34" waitingTime="41.00" waitingCount="3" stopTime="0.00" timeLoss="87.02" rerouteNo="0" devices="tripinfo_flow4.1_bicycle emissions_flow4.1_bicycle" vType="car" speedFactor="0.94" vaporized="">
        <emissions CO_abs="17289.102098" CO2_abs="654876.243555" HC_abs="93.592655" PMx_abs="11.509193" NOx_abs="268.102124" fuel_abs="208879.988187" electricity_abs="0"/>
    </tripinfo>
    <tripinfo id="flow4.1_bicycle.1" depart="152.00" departLane="-758926622_0" departPos="5.10" departSpeed="0.00" departDelay="3.04" arrival="421.00" arrivalLane="132346057#5_0" arrivalPos="344.19" arrivalSpeed="7.95" duration="269.00" routeLength="1923.34" waitingTime="36.00" waitingCount="3" stopTime="0.00" timeLoss="96.70" rerouteNo="0" devices="tripinfo_flow4.1_bicycle.1 emissions_flow4.1_bicycle.1" vType="car" speedFactor="1.01" vaporized="">
        <emissions CO_abs="18099.595578" CO2_abs="705884.579018" HC_abs="98.339573" PMx_abs="12.586357" NOx_abs="290.168286" fuel_abs="225149.084417" electricity_abs="0"/>
    </tripinfo>
    <tripinfo id="flow4.1_bicycle.2" depart="155.00" departLane="-758926622_0" departPos="5.10" departSpeed="0.00" departDelay="6.04" arrival="423.00" arrivalLane="132346057#5_0" arrivalPos="344.19" arrivalSpeed="8.63" duration="268.00" routeLength="1923.34" waitingTime="35.00" waitingCount="2" stopTime="0.00" timeLoss="101.18" rerouteNo="0" devices="tripinfo_flow4.1_bicycle.2 emissions_flow4.1_bicycle.2" vType="car" speedFactor="1.08" vaporized="">
        <emissions CO_abs="17443.762613" CO2_abs="694182.650891" HC_abs="95.281175" PMx_abs="12.564150" NOx_abs="286.649464" fuel_abs="221416.212100" electricity_abs="0"/>
    </tripinfo>
    <tripinfo id="flow2.0_bicycle.3" depart="322.00" departLane="758926614#0_0" departPos="5.10" departSpeed="0.00" departDelay="8.67" arrival="423.00" arrivalLane="758926626_0" arrivalPos="143.98" arrivalSpeed="7.16" duration="101.00" routeLength="880.34" waitingTime="4.00" waitingCount="1" stopTime="0.00" timeLoss="22.06" rerouteNo="0" devices="tripinfo_flow2.0_bicycle.3 emissions_flow2.0_bicycle.3" vType="car_fast" speedFactor="1.00" vaporized="">
        <emissions CO_abs="5689.139823" CO2_abs="294486.214406" HC_abs="32.792473" PMx_abs="5.219144" NOx_abs="120.900810" fuel_abs="93928.261789" electricity_abs="0"/>
    </tripinfo>
    <tripinfo id="flow4.1_bicycle.3" depart="158.00" departLane="-758926622_0" departPos="5.10" departSpeed="0.00" departDelay="9.04" arrival="425.00" arrivalLane="132346057#5_0" arrivalPos="344.19" arrivalSpeed="8.05" duration="267.00" routeLength="1923.34" waitingTime="34.00" waitingCount="2" stopTime="0.00" timeLoss="97.09" rerouteNo="0" devices="tripinfo_flow4.1_bicycle.3 emissions_flow4.1_bicycle.3" vType="car" speedFactor="1.03" vaporized="">
        <emissions CO_abs="17140.986339" CO2_abs="681252.789042" HC_abs="93.422631" PMx_abs="12.158173" NOx_abs="280.181943" fuel_abs="217292.295948" electricity_abs="0"/>
    </tripinfo>
    <tripinfo id="flow4.1_bicycle.4" depart="161.00" departLane="-758926622_0" departPos="5.10" departSpeed="0.00" departDelay="12.04" arrival="441.00" arrivalLane="132346057#5_0" arrivalPos="344.19" arrivalSpeed="6.31" duration="280.00" routeLength="1923.34" waitingTime="23.00" waitingCount="3" stopTime="0.00" timeLoss="77.66" rerouteNo="0" devices="tripinfo_flow4.1_bicycle.4 emissions_flow4.1_bicycle.4" vType="car" speedFactor="0.83" vaporized="">
        <emissions CO_abs="16223.479535" CO2_abs="626901.107431" HC_abs="88.277971" PMx_abs="10.787880" NOx_abs="256.647231" fuel_abs="199956.992148" electricity_abs="0"/>
    </tripinfo>
    <tripinfo id="flow4.1_bicycle.5" depart="164.00" departLane="-758926622_0" departPos="5.10" departSpeed="0.00" departDelay="15.04" arrival="443.00" arrivalLane="132346057#5_0" arrivalPos="344.19" arrivalSpeed="8.52" duration="279.00" routeLength="1923.34" waitingTime="20.00" waitingCount="3" stopTime="0.00" timeLoss="110.58" rerouteNo="0" devices="tripinfo_flow4.1_bicycle.5 emissions_flow4.1_bicycle.5" vType="car" speedFactor="1.05" vaporized="">
        <emissions CO_abs="16417.712769" CO2_abs="650273.490833" HC_abs="89.619275" PMx_abs="11.393782" NOx_abs="267.280319" fuel_abs="207411.375502" electricity_abs="0"/>
    </tripinfo>
    <tripinfo id="flow4.1_bicycle.6" depart="167.00" departLane="-758926622_0" departPos="5.10" departSpeed="0.00" departDelay="18.04" arrival="446.00" arrivalLane="132346057#5_0" arrivalPos="344.19" arrivalSpeed="6.74" duration="279.00" routeLength="1923.34" waitingTime="14.00" waitingCount="2" stopTime="0.00" timeLoss="87.18" rerouteNo="0" devices="tripinfo_flow4.1_bicycle.6 emissions_flow4.1_bicycle.6" vType="car" speedFactor="0.89" vaporized="">
        <emissions CO_abs="16307.221943" CO2_abs="655403.296895" HC_abs="89.176326" PMx_abs="11.284474" NOx_abs="268.053317" fuel_abs="209047.650006" electricity_abs="0"/>
    </tripinfo>
    <tripinfo id="flow5.4" depart="387.00" departLane="67209282#0_0" departPos="5.10" departSpeed="0.00" departDelay="0.00" arrival="455.00" arrivalLane="-67504621_0" arrivalPos="163.75" arrivalSpeed="11.86" duration="68.00" routeLength="732.17" waitingTime="0.00" waitingCount="0" stopTime="0.00" timeLoss="11.70" rerouteNo="0" devices="tripinfo_flow5.4 emissions_flow5.4" vType="car" speedFactor="0.94" vaporized="">
        <emissions CO_abs="2855.046625" CO2_abs="200493.637895" HC_abs="17.511227" PMx_abs="3.297143" NOx_abs="79.902733" fuel_abs="63948.405094" electricity_abs="0"/>
    </tripinfo>
    <tripinfo id="flow2.0_bicycle.4" depart="324.00" departLane="758926614#0_0" departPos="5.10" departSpeed="0.00" departDelay="10.67" arrival="459.00" arrivalLane="758926626_0" arrivalPos="143.98" arrivalSpeed="6.25" duration="135.00" routeLength="880.34" waitingTime="23.00" waitingCount="2" stopTime="0.00" timeLoss="49.28" rerouteNo="0" devices="tripinfo_flow2.0_bicycle.4 emissions_flow2.0_bicycle.4" vType="car_fast" speedFactor="0.90" vaporized="">
        <emissions CO_abs="10071.658482" CO2_abs="362624.073203" HC_abs="54.274368" PMx_abs="7.055033" NOx_abs="153.235817" fuel_abs="115662.466248" electricity_abs="0"/>
    </tripinfo>
    <tripinfo id="flow5.4.1" depart="390.00" departLane="67209282#0_0" departPos="5.10" departSpeed="0.00" departDelay="3.00" arrival="461.00" arrivalLane="-67504621_0" arrivalPos="163.75" arrivalSpeed="11.61" duration="71.00" routeLength="732.17" waitingTime="0.00" waitingCount="0" stopTime="0.00" timeLoss="11.50" rerouteNo="0" devices="tripinfo_flow5.4.1 emissions_flow5.4.1" vType="car" speedFactor="0.88" vaporized="">
        <emissions CO_abs="2780.557786" CO2_abs="201239.436753" HC_abs="17.204989" PMx_abs="3.077196" NOx_abs="78.704636" fuel_abs="64186.504031" electricity_abs="0"/>
    </tripinfo>
    <tripinfo id="flow2.0_bicycle.5" depart="327.00" departLane="758926614#0_0" departPos="5.10" departSpeed="0.00" departDelay="13.67" arrival="463.00" arrivalLane="758926626_0" arrivalPos="143.98" arrivalSpeed="6.12" duration="136.00" routeLength="880.34" waitingTime="20.00" waitingCount="1" stopTime="0.00" timeLoss="47.73" rerouteNo="0" devices="tripinfo_flow2.0_bicycle.5 emissions_flow2.0_bicycle.5" vType="car_fast" speedFactor="0.88" vaporized="">
        <emissions CO_abs="9992.194580" CO2_abs="359230.654310" HC_abs="53.899808" PMx_abs="6.890952" NOx_abs="151.351614" fuel_abs="114580.224018" electricity_abs="0"/>
    </tripinfo>
    <tripinfo id="flow5.4.2" depart="393.00" departLane="67209282#0_0" departPos="5.10" departSpeed="0.00" departDelay="6.00" arrival="463.00" arrivalLane="-67504621_0" arrivalPos="163.75" arrivalSpeed="11.58" duration="70.00" routeLength="732.17" waitingTime="0.00" waitingCount="0" stopTime="0.00" timeLoss="12.02" rerouteNo="0" devices="tripinfo_flow5.4.2 emissions_flow5.4.2" vType="car" speedFactor="0.91" vaporized="">
        <emissions CO_abs="2739.512849" CO2_abs="194972.849566" HC_abs="16.862060" PMx_abs="3.075500" NOx_abs="76.910422" fuel_abs="62187.653649" electricity_abs="0"/>
    </tripinfo>
    <tripinfo id="flow2.0_bicycle.6" depart="330.00" departLane="758926614#0_0" departPos="5.10" departSpeed="0.00" departDelay="16.67" arrival="466.00" arrivalLane="758926626_0" arrivalPos="143.98" arrivalSpeed="6.00" duration="136.00" routeLength="880.34" waitingTime="20.00" waitingCount="1" stopTime="0.00" timeLoss="44.66" rerouteNo="0" devices="tripinfo_flow2.0_bicycle.6 emissions_flow2.0_bicycle.6" vType="car_fast" speedFactor="0.85" vaporized="">
        <emissions CO_abs="9284.239654" CO2_abs="330640.526095" HC_abs="49.912414" PMx_abs="6.239440" NOx_abs="138.464360" fuel_abs="105461.260763" electricity_abs="0"/>
    </tripinfo>
    <tripinfo id="flow5.4.3" depart="395.00" departLane="67209282#0_0" departPos="5.10" departSpeed="0.00" departDelay="8.00" arrival="466.00" arrivalLane="-67504621_0" arrivalPos="163.75" arrivalSpeed="12.54" duration="71.00" routeLength="732.17" waitingTime="0.00" waitingCount="0" stopTime="0.00" timeLoss="13.77" rerouteNo="0" devices="tripinfo_flow5.4.3 emissions_flow5.4.3" vType="car" speedFactor="0.91" vaporized="">
        <emissions CO_abs="2704.512475" CO2_abs="188859.157013" HC_abs="16.454190" PMx_abs="2.961390" NOx_abs="74.034786" fuel_abs="60237.720486" electricity_abs="0"/>
    </tripinfo>
    <tripinfo id="flow5.4.4" depart="399.00" departLane="67209282#0_0" departPos="5.10" departSpeed="0.00" departDelay="12.00" arrival="468.00" arrivalLane="-67504621_0" arrivalPos="163.75" arrivalSpeed="13.20" duration="69.00" routeLength="732.17" waitingTime="0.00" waitingCount="0" stopTime="0.00" timeLoss="14.38" rerouteNo="0" devices="tripinfo_flow5.4.4 emissions_flow5.4.4" vType="car" speedFactor="1.04" vaporized="">
        <emissions CO_abs="2763.189109" CO2_abs="198730.569370" HC_abs="16.960400" PMx_abs="3.201241" NOx_abs="78.529647" fuel_abs="63386.101434" electricity_abs="0"/>
    </tripinfo>
    <tripinfo id="flow5.4.5" depart="402.00" departLane="67209282#0_0" departPos="5.10" departSpeed="0.00" departDelay="15.00" arrival="471.00" arrivalLane="-67504621_0" arrivalPos="163.75" arrivalSpeed="13.79" duration="69.00" routeLength="732.17" waitingTime="0.00" waitingCount="0" stopTime="0.00" timeLoss="13.92" rerouteNo="0" devices="tripinfo_flow5.4.5 emissions_flow5.4.5" vType="car" speedFactor="1.02" vaporized="">
        <emissions CO_abs="2978.646169" CO2_abs="198866.502289" HC_abs="18.032053" PMx_abs="3.404844" NOx_abs="80.148014" fuel_abs="63429.353367" electricity_abs="0"/>
    </tripinfo>
    <tripinfo id="flow5.4.6" depart="405.00" departLane="67209282#0_0" departPos="5.10" departSpeed="0.00" departDelay="18.00" arrival="474.00" arrivalLane="-67504621_0" arrivalPos="163.75" arrivalSpeed="13.13" duration="69.00" routeLength="732.17" waitingTime="0.00" waitingCount="0" stopTime="0.00" timeLoss="14.12" rerouteNo="0" devices="tripinfo_flow5.4.6 emissions_flow5.4.6" vType="car" speedFactor="1.02" vaporized="">
        <emissions CO_abs="2800.177827" CO2_abs="195286.649264" HC_abs="17.239784" PMx_abs="3.282787" NOx_abs="78.323612" fuel_abs="62287.550730" electricity_abs="0"/>
    </tripinfo>
    <tripinfo id="flow4.0" depart="208.00" departLane="-758926622_0" departPos="5.10" departSpeed="0.00" departDelay="10.00" arrival="488.00" arrivalLane="132346057#5_0" arrivalPos="344.19" arrivalSpeed="8.12" duration="280.00" routeLength="1923.34" waitingTime="19.00" waitingCount="1" stopTime="0.00" timeLoss="45.26" rerouteNo="0" devices="tripinfo_flow4.0 emissions_flow4.0" vType="car_slow" speedFactor="0.97" vaporized="">
        <emissions CO_abs="14156.386394" CO2_abs="562428.856769" HC_abs="77.047858" PMx_abs="7.729408" NOx_abs="218.682704" fuel_abs="179394.735330" electricity_abs="0"/>
    </tripinfo>
    <tripinfo id="flow4.0.1" depart="212.00" departLane="-758926622_0" departPos="5.10" departSpeed="0.00" departDelay="14.00" arrival="523.00" arrivalLane="132346057#5_0" arrivalPos="344.19" arrivalSpeed="7.12" duration="311.00" routeLength="1923.34" waitingTime="34.00" waitingCount="3" stopTime="0.00" timeLoss="67.41" rerouteNo="0" devices="tripinfo_flow4.0.1 emissions_flow4.0.1" vType="car_slow" speedFactor="0.89" vaporized="">
        <emissions CO_abs="18283.030229" CO2_abs="623841.448465" HC_abs="97.310768" PMx_abs="9.500450" NOx_abs="248.685923" fuel_abs="198983.737831" electricity_abs="0"/>
    </tripinfo>
    <tripinfo id="flow4.0.2" depart="216.00" departLane="-758926622_0" departPos="5.10" departSpeed="0.00" departDelay="18.00" arrival="533.00" arrivalLane="132346057#5_0" arrivalPos="344.19" arrivalSpeed="6.47" duration="317.00" routeLength="1923.34" waitingTime="26.00" waitingCount="3" stopTime="0.00" timeLoss="65.71" rerouteNo="0" devices="tripinfo_flow4.0.2 emissions_flow4.0.2" vType="car_slow" speedFactor="0.83" vaporized="">
        <emissions CO_abs="18911.805462" CO2_abs="645075.449595" HC_abs="100.590708" PMx_abs="9.522694" NOx_abs="255.431453" fuel_abs="205756.974090" electricity_abs="0"/>
    </tripinfo>
    <tripinfo id="flow4.0.3" depart="220.00" departLane="-758926622_0" departPos="5.10" departSpeed="0.00" departDelay="22.00" arrival="535.00" arrivalLane="132346057#5_0" arrivalPos="344.19" arrivalSpeed="6.63" duration="315.00" routeLength="1923.34" waitingTime="18.00" waitingCount="2" stopTime="0.00" timeLoss="69.59" rerouteNo="0" devices="tripinfo_flow4.0.3 emissions_flow4.0.3" vType="car_slow" speedFactor="0.87" vaporized="">
        <emissions CO_abs="18154.031794" CO2_abs="626520.331873" HC_abs="96.771387" PMx_abs="9.467340" NOx_abs="249.570631" fuel_abs="199838.137799" electricity_abs="0"/>
    </tripinfo>