<?xml version="1.0" encoding="UTF-8"?>

<!-- generated on 2024-11-13 15:08:39 by Eclipse SUMO GUI Version 1.21.0
<sumoConfiguration xmlns:xsi="http://www.w3.org/2001/XMLSchema-instance" xsi:noNamespaceSchemaLocation="http://sumo.dlr.de/xsd/sumoConfiguration.xsd">

    <input>
        <net-file value="Map_Smartseille.net.xml"/>
        <route-files value="flows_s2_updated.rou.xml"/>
        <additional-files value="parking_parking1.add.xml"/>
    </input>

    <output>
        <emission-output value="emissions_scenario2.xml"/>
        <tripinfo-output value="tripinfo_scenario2.xml"/>
    </output>

    <time>
        <begin value="0"/>
        <end value="7200"/>
    </time>

    <traci_server>
        <remote-port value="55002"/>
    </traci_server>

</sumoConfiguration>
-->

<tripinfos xmlns:xsi="http://www.w3.org/2001/XMLSchema-instance" xsi:noNamespaceSchemaLocation="http://sumo.dlr.de/xsd/tripinfo_file.xsd">
    <tripinfo id="flow2.5" depart="170.00" departLane="98338697#0_0" departPos="5.10" departSpeed="0.00" departDelay="0.00" arrival="255.00" arrivalLane="758926622_0" arrivalPos="154.47" arrivalSpeed="12.81" duration="85.00" routeLength="985.82" waitingTime="0.00" waitingCount="0" stopTime="0.00" timeLoss="12.45" rerouteNo="0" devices="tripinfo_flow2.5 emissions_flow2.5" vType="car" speedFactor="0.94" vaporized="">
        <emissions CO_abs="3029.981035" CO2_abs="251160.355339" HC_abs="19.310931" PMx_abs="3.836813" NOx_abs="97.186129" fuel_abs="80108.841101" electricity_abs="0"/>
    </tripinfo>
    <tripinfo id="flow2.5.1" depart="173.00" departLane="98338697#0_0" departPos="5.10" departSpeed="0.00" departDelay="3.00" arrival="260.00" arrivalLane="758926622_0" arrivalPos="154.47" arrivalSpeed="12.99" duration="87.00" routeLength="985.82" waitingTime="0.00" waitingCount="0" stopTime="0.00" timeLoss="13.79" rerouteNo="0" devices="tripinfo_flow2.5.1 emissions_flow2.5.1" vType="car" speedFactor="0.86" vaporized="">
        <emissions CO_abs="3134.956462" CO2_abs="245203.377879" HC_abs="19.618275" PMx_abs="3.767455" NOx_abs="95.179485" fuel_abs="78208.901869" electricity_abs="0"/>
    </tripinfo>
    <tripinfo id="flow2.5.2" depart="176.00" departLane="98338697#0_0" departPos="5.10" departSpeed="0.00" departDelay="6.00" arrival="262.00" arrivalLane="758926622_0" arrivalPos="154.47" arrivalSpeed="13.03" duration="86.00" routeLength="985.82" waitingTime="0.00" waitingCount="0" stopTime="0.00" timeLoss="13.92" rerouteNo="0" devices="tripinfo_flow2.5.2 emissions_flow2.5.2" vType="car" speedFactor="1.09" vaporized="">
        <emissions CO_abs="3107.856771" CO2_abs="249879.879160" HC_abs="19.569079" PMx_abs="3.854546" NOx_abs="97.033407" fuel_abs="79700.419119" electricity_abs="0"/>
    </tripinfo>
    <tripinfo id="flow3.0" depart="187.00" departLane="-758926622_0" departPos="5.10" departSpeed="0.00" departDelay="0.00" arrival="264.00" arrivalLane="1200615233_0" arrivalPos="80.97" arrivalSpeed="12.72" duration="77.00" routeLength="669.44" waitingTime="0.00" waitingCount="0" stopTime="0.00" timeLoss="10.12" rerouteNo="0" devices="tripinfo_flow3.0 emissions_flow3.0" vType="car" speedFactor="0.93" vaporized="">
        <emissions CO_abs="3396.456576" CO2_abs="190912.913357" HC_abs="19.787125" PMx_abs="2.978326" NOx_abs="75.823858" fuel_abs="60893.152095" electricity_abs="0"/>
    </tripinfo>
    <tripinfo id="flow2.5.3" depart="179.00" departLane="98338697#0_0" departPos="5.10" departSpeed="0.00" departDelay="9.00" arrival="265.00" arrivalLane="758926622_0" arrivalPos="154.47" arrivalSpeed="13.11" duration="86.00" routeLength="985.82" waitingTime="0.00" waitingCount="0" stopTime="0.00" timeLoss="13.50" rerouteNo="0" devices="tripinfo_flow2.5.3 emissions_flow2.5.3" vType="car" speedFactor="1.03" vaporized="">
        <emissions CO_abs="2888.927382" CO2_abs="241228.508515" HC_abs="18.369613" PMx_abs="3.682231" NOx_abs="93.393049" fuel_abs="76940.997500" electricity_abs="0"/>
    </tripinfo>
    <tripinfo id="flow2.5.4" depart="182.00" departLane="98338697#0_0" departPos="5.10" departSpeed="0.00" departDelay="12.00" arrival="270.00" arrivalLane="758926622_0" arrivalPos="154.47" arrivalSpeed="13.79" duration="88.00" routeLength="985.82" waitingTime="0.00" waitingCount="0" stopTime="0.00" timeLoss="14.33" rerouteNo="0" devices="tripinfo_flow2.5.4 emissions_flow2.5.4" vType="car" speedFactor="1.05" vaporized="">
        <emissions CO_abs="3060.237417" CO2_abs="243000.437669" HC_abs="19.162832" PMx_abs="3.760338" NOx_abs="94.233337" fuel_abs="77506.213653" electricity_abs="0"/>
    </tripinfo>
    <tripinfo id="flow3.0.1" depart="190.00" departLane="-758926622_0" departPos="5.10" departSpeed="0.00" departDelay="3.00" arrival="270.00" arrivalLane="1200615233_0" arrivalPos="80.97" arrivalSpeed="11.10" duration="80.00" routeLength="669.44" waitingTime="0.00" waitingCount="0" stopTime="0.00" timeLoss="9.81" rerouteNo="0" devices="tripinfo_flow3.0.1 emissions_flow3.0.1" vType="car" speedFactor="0.88" vaporized="">
        <emissions CO_abs="3564.380122" CO2_abs="191745.350975" HC_abs="20.579935" PMx_abs="3.007922" NOx_abs="76.421092" fuel_abs="61158.739602" electricity_abs="0"/>
    </tripinfo>
    <tripinfo id="flow2.5.5" depart="185.00" departLane="98338697#0_0" departPos="5.10" departSpeed="0.00" departDelay="15.00" arrival="272.00" arrivalLane="758926622_0" arrivalPos="154.47" arrivalSpeed="13.02" duration="87.00" routeLength="985.82" waitingTime="0.00" waitingCount="0" stopTime="0.00" timeLoss="13.97" rerouteNo="0" devices="tripinfo_flow2.5.5 emissions_flow2.5.5" vType="car" speedFactor="1.12" vaporized="">
        <emissions CO_abs="3099.727611" CO2_abs="246575.961314" HC_abs="19.582319" PMx_abs="3.817135" NOx_abs="96.032857" fuel_abs="78646.631416" electricity_abs="0"/>
    </tripinfo>
    <tripinfo id="flow3.0.2" depart="193.00" departLane="-758926622_0" departPos="5.10" departSpeed="0.00" departDelay="6.00" arrival="273.00" arrivalLane="1200615233_0" arrivalPos="80.97" arrivalSpeed="12.28" duration="80.00" routeLength="669.44" waitingTime="1.00" waitingCount="1" stopTime="0.00" timeLoss="14.39" rerouteNo="0" devices="tripinfo_flow3.0.2 emissions_flow3.0.2" vType="car" speedFactor="0.94" vaporized="">
        <emissions CO_abs="3857.920255" CO2_abs="205097.536153" HC_abs="22.136731" PMx_abs="3.288106" NOx_abs="82.032368" fuel_abs="65417.468128" electricity_abs="0"/>
    </tripinfo>
    <tripinfo id="flow2.5.6" depart="188.00" departLane="98338697#0_0" departPos="5.10" departSpeed="0.00" departDelay="18.00" arrival="276.00" arrivalLane="758926622_0" arrivalPos="154.47" arrivalSpeed="12.88" duration="88.00" routeLength="985.82" waitingTime="0.00" waitingCount="0" stopTime="0.00" timeLoss="15.31" rerouteNo="0" devices="tripinfo_flow2.5.6 emissions_flow2.5.6" vType="car" speedFactor="0.99" vaporized="">
        <emissions CO_abs="3304.712906" CO2_abs="239518.520754" HC_abs="20.372645" PMx_abs="3.861774" NOx_abs="94.609878" fuel_abs="76395.612535" electricity_abs="0"/>
    </tripinfo>
    <tripinfo id="flow3.0.3" depart="195.00" departLane="-758926622_0" departPos="5.10" departSpeed="0.00" departDelay="8.00" arrival="278.00" arrivalLane="1200615233_0" arrivalPos="80.97" arrivalSpeed="12.25" duration="83.00" routeLength="669.44" waitingTime="0.00" waitingCount="0" stopTime="0.00" timeLoss="17.15" rerouteNo="0" devices="tripinfo_flow3.0.3 emissions_flow3.0.3" vType="car" speedFactor="0.94" vaporized="">
        <emissions CO_abs="4452.321216" CO2_abs="216031.931383" HC_abs="25.242846" PMx_abs="3.619047" NOx_abs="87.611760" fuel_abs="68905.156209" electricity_abs="0"/>
    </tripinfo>
    <tripinfo id="flow3.0.4" depart="199.00" departLane="-758926622_0" departPos="5.10" departSpeed="0.00" departDelay="12.00" arrival="283.00" arrivalLane="1200615233_0" arrivalPos="80.97" arrivalSpeed="13.18" duration="84.00" routeLength="669.44" waitingTime="0.00" waitingCount="0" stopTime="0.00" timeLoss="26.12" rerouteNo="0" devices="tripinfo_flow3.0.4 emissions_flow3.0.4" vType="car" speedFactor="1.16" vaporized="">
        <emissions CO_abs="4654.524417" CO2_abs="229035.856820" HC_abs="26.406391" PMx_abs="4.042914" NOx_abs="94.163379" fuel_abs="73052.575366" electricity_abs="0"/>
    </tripinfo>
    <tripinfo id="flow3.0.5" depart="202.00" departLane="-758926622_0" departPos="5.10" departSpeed="0.00" departDelay="15.00" arrival="288.00" arrivalLane="1200615233_0" arrivalPos="80.97" arrivalSpeed="13.85" duration="86.00" routeLength="669.44" waitingTime="1.00" waitingCount="1" stopTime="0.00" timeLoss="23.79" rerouteNo="0" devices="tripinfo_flow3.0.5 emissions_flow3.0.5" vType="car" speedFactor="1.02" vaporized="">
        <emissions CO_abs="4986.577615" CO2_abs="236881.961205" HC_abs="28.101145" PMx_abs="4.161272" NOx_abs="97.128404" fuel_abs="75555.290834" electricity_abs="0"/>
    </tripinfo>
    <tripinfo id="flow3.0.6" depart="205.00" departLane="-758926622_0" departPos="5.10" departSpeed="0.00" departDelay="18.00" arrival="293.00" arrivalLane="1200615233_0" arrivalPos="80.97" arrivalSpeed="13.26" duration="88.00" routeLength="669.44" waitingTime="0.00" waitingCount="0" stopTime="0.00" timeLoss="25.27" rerouteNo="0" devices="tripinfo_flow3.0.6 emissions_flow3.0.6" vType="car" speedFactor="1.01" vaporized="">
        <emissions CO_abs="5065.339369" CO2_abs="239761.737406" HC_abs="28.485168" PMx_abs="4.107202" NOx_abs="97.471535" fuel_abs="76473.951842" electricity_abs="0"/>
    </tripinfo>
    <tripinfo id="flow5.6" depart="259.00" departLane="67209282#0_0" departPos="5.10" departSpeed="0.00" departDelay="0.00" arrival="383.00" arrivalLane="-67504621_0" arrivalPos="163.75" arrivalSpeed="8.14" duration="124.00" routeLength="732.17" waitingTime="21.00" waitingCount="1" stopTime="0.00" timeLoss="34.55" rerouteNo="0" devices="tripinfo_flow5.6 emissions_flow5.6" vType="car_slow" speedFactor="0.97" vaporized="">
        <emissions CO_abs="8377.980435" CO2_abs="263861.666202" HC_abs="44.114433" PMx_abs="4.203035" NOx_abs="106.181880" fuel_abs="84162.915176" electricity_abs="0"/>
    </tripinfo>
    <tripinfo id="flow5.6.1" depart="262.00" departLane="67209282#0_0" departPos="5.10" departSpeed="0.00" departDelay="3.00" arrival="385.00" arrivalLane="-67504621_0" arrivalPos="163.75" arrivalSpeed="7.59" duration="123.00" routeLength="732.17" waitingTime="21.00" waitingCount="2" stopTime="0.00" timeLoss="34.19" rerouteNo="0" devices="tripinfo_flow5.6.1 emissions_flow5.6.1" vType="car_slow" speedFactor="1.18" vaporized="">
        <emissions CO_abs="8067.562053" CO2_abs="255110.818806" HC_abs="42.507175" PMx_abs="4.079853" NOx_abs="102.768840" fuel_abs="81371.652550" electricity_abs="0"/>
    </tripinfo>
    <tripinfo id="flow5.6.2" depart="266.00" departLane="67209282#0_0" departPos="5.10" departSpeed="0.00" departDelay="7.00" arrival="388.00" arrivalLane="-67504621_0" arrivalPos="163.75" arrivalSpeed="8.04" duration="122.00" routeLength="732.17" waitingTime="18.00" waitingCount="1" stopTime="0.00" timeLoss="32.95" rerouteNo="0" devices="tripinfo_flow5.6.2 emissions_flow5.6.2" vType="car_slow" speedFactor="1.10" vaporized="">
        <emissions CO_abs="8049.159234" CO2_abs="262237.189222" HC_abs="42.566728" PMx_abs="4.068622" NOx_abs="104.908491" fuel_abs="83644.702871" electricity_abs="0"/>
    </tripinfo>
    <tripinfo id="flow5.6.3" depart="270.00" departLane="67209282#0_0" departPos="5.10" departSpeed="0.00" departDelay="11.00" arrival="391.00" arrivalLane="-67504621_0" arrivalPos="163.75" arrivalSpeed="7.76" duration="121.00" routeLength="732.17" waitingTime="16.00" waitingCount="2" stopTime="0.00" timeLoss="31.62" rerouteNo="0" devices="tripinfo_flow5.6.3 emissions_flow5.6.3" vType="car_slow" speedFactor="0.90" vaporized="">
        <emissions CO_abs="7693.809620" CO2_abs="256254.086412" HC_abs="40.778602" PMx_abs="3.768334" NOx_abs="101.195411" fuel_abs="81736.422074" electricity_abs="0"/>
    </tripinfo>
    <tripinfo id="flow5.6.4" depart="274.00" departLane="67209282#0_0" departPos="5.10" departSpeed="0.00" departDelay="15.00" arrival="393.00" arrivalLane="-67504621_0" arrivalPos="163.75" arrivalSpeed="8.13" duration="119.00" routeLength="732.17" waitingTime="14.00" waitingCount="1" stopTime="0.00" timeLoss="30.24" rerouteNo="0" devices="tripinfo_flow5.6.4 emissions_flow5.6.4" vType="car_slow" speedFactor="1.03" vaporized="">
        <emissions CO_abs="7251.961303" CO2_abs="241269.071536" HC_abs="38.473728" PMx_abs="3.772367" NOx_abs="96.729240" fuel_abs="76956.457677" electricity_abs="0"/>
    </tripinfo>
    <tripinfo id="flow5.6.5" depart="279.00" departLane="67209282#0_0" departPos="5.10" departSpeed="0.00" departDelay="20.00" arrival="396.00" arrivalLane="-67504621_0" arrivalPos="163.75" arrivalSpeed="8.02" duration="117.00" routeLength="732.17" waitingTime="12.00" waitingCount="1" stopTime="0.00" timeLoss="27.69" rerouteNo="0" devices="tripinfo_flow5.6.5 emissions_flow5.6.5" vType="car_slow" speedFactor="0.96" vaporized="">
        <emissions CO_abs="6845.512711" CO2_abs="236398.824075" HC_abs="36.506314" PMx_abs="3.624045" NOx_abs="94.352001" fuel_abs="75402.931300" electricity_abs="0"/>
    </tripinfo>
    <tripinfo id="flow5.6.6" depart="282.00" departLane="67209282#0_0" departPos="5.10" departSpeed="0.00" departDelay="23.00" arrival="399.00" arrivalLane="-67504621_0" arrivalPos="163.75" arrivalSpeed="7.78" duration="117.00" routeLength="732.17" waitingTime="11.00" waitingCount="1" stopTime="0.00" timeLoss="28.02" rerouteNo="0" devices="tripinfo_flow5.6.6 emissions_flow5.6.6" vType="car_slow" speedFactor="1.09" vaporized="">
        <emissions CO_abs="6903.998916" CO2_abs="238152.601422" HC_abs="36.802405" PMx_abs="3.603018" NOx_abs="94.764034" fuel_abs="75962.382281" electricity_abs="0"/>
    </tripinfo>
    <tripinfo id="flow2.0_bicycle" depart="314.00" departLane="758926614#0_0" departPos="5.10" departSpeed="0.00" departDelay="0.67" arrival="410.00" arrivalLane="758926626_0" arrivalPos="143.98" arrivalSpeed="7.73" duration="96.00" routeLength="880.34" waitingTime="0.00" waitingCount="0" stopTime="0.00" timeLoss="19.89" rerouteNo="0" devices="tripinfo_flow2.0_bicycle emissions_flow2.0_bicycle" vType="car_fast" speedFactor="1.04" vaporized="">
        <emissions CO_abs="4708.502203" CO2_abs="264296.705975" HC_abs="27.442388" PMx_abs="4.627587" NOx_abs="107.320584" fuel_abs="84298.963549" electricity_abs="0"/>
    </tripinfo>
    <tripinfo id="flow2.0_bicycle.1" depart="317.00" departLane="758926614#0_0" departPos="5.10" departSpeed="0.00" departDelay="3.67" arrival="413.00" arrivalLane="758926626_0" arrivalPos="143.98" arrivalSpeed="7.51" duration="96.00" routeLength="880.34" waitingTime="0.00" waitingCount="0" stopTime="0.00" timeLoss="20.05" rerouteNo="0" devices="tripinfo_flow2.0_bicycle.1 emissions_flow2.0_bicycle.1" vType="car_fast" speedFactor="1.04" vaporized="">
        <emissions CO_abs="4861.499282" CO2_abs="276909.891227" HC_abs="28.391798" PMx_abs="4.793085" NOx_abs="111.773288" fuel_abs="88322.025563" electricity_abs="0"/>
    </tripinfo>
    <tripinfo id="flow2.0_bicycle.2" depart="320.00" departLane="758926614#0_0" departPos="5.10" departSpeed="0.00" departDelay="6.67" arrival="415.00" arrivalLane="758926626_0" arrivalPos="143.98" arrivalSpeed="8.38" duration="95.00" routeLength="880.34" waitingTime="0.00" waitingCount="0" stopTime="0.00" timeLoss="21.60" rerouteNo="0" devices="tripinfo_flow2.0_bicycle.2 emissions_flow2.0_bicycle.2" vType="car_fast" speedFactor="1.09" vaporized="">
        <emissions CO_abs="5103.940898" CO2_abs="281062.571445" HC_abs="29.516960" PMx_abs="4.955749" NOx_abs="114.589610" fuel_abs="89646.511387" electricity_abs="0"/>
    </tripinfo>
    <tripinfo id="flow4.1_bicycle" depart="149.00" departLane="-758926622_0" departPos="5.10" departSpeed="0.00" departDelay="0.04" arrival="417.00" arrivalLane="132346057#5_0" arrivalPos="344.19" arrivalSpeed="6.55" duration="268.00" routeLength="1923.34" waitingTime="43.00" waitingCount="3" stopTime="0.00" timeLoss="85.43" rerouteNo="0" devices="tripinfo_flow4.1_bicycle emissions_flow4.1_bicycle" vType="car" speedFactor="0.94" vaporized="">
        <emissions CO_abs="17157.801260" CO2_abs="655164.947029" HC_abs="92.952251" PMx_abs="11.404098" NOx_abs="267.458027" fuel_abs="208972.115238" electricity_abs="0"/>
    </tripinfo>
    <tripinfo id="flow4.1_bicycle.1" depart="152.00" departLane="-758926622_0" departPos="5.10" departSpeed="0.00" departDelay="3.04" arrival="419.00" arrivalLane="132346057#5_0" arrivalPos="344.19" arrivalSpeed="8.21" duration="267.00" routeLength="1923.34" waitingTime="35.00" waitingCount="2" stopTime="0.00" timeLoss="95.98" rerouteNo="0" devices="tripinfo_flow4.1_bicycle.1 emissions_flow4.1_bicycle.1" vType="car" speedFactor="1.01" vaporized="">
        <emissions CO_abs="16970.169210" CO2_abs="665116.146955" HC_abs="92.378737" PMx_abs="11.707032" NOx_abs="272.654946" fuel_abs="212145.698623" electricity_abs="0"/>
    </tripinfo>
    <tripinfo id="flow4.1_bicycle.2" depart="155.00" departLane="-758926622_0" departPos="5.10" departSpeed="0.00" departDelay="6.04" arrival="421.00" arrivalLane="132346057#5_0" arrivalPos="344.19" arrivalSpeed="8.29" duration="266.00" routeLength="1923.34" waitingTime="34.00" waitingCount="2" stopTime="0.00" timeLoss="100.88" rerouteNo="0" devices="tripinfo_flow4.1_bicycle.2 emissions_flow4.1_bicycle.2" vType="car" speedFactor="1.08" vaporized="">
        <emissions CO_abs="17072.038554" CO2_abs="678112.725309" HC_abs="93.064806" PMx_abs="11.919458" NOx_abs="277.795061" fuel_abs="216290.958983" electricity_abs="0"/>
    </tripinfo>
    <tripinfo id="flow2.0_bicycle.3" depart="322.00" departLane="758926614#0_0" departPos="5.10" departSpeed="0.00" departDelay="8.67" arrival="423.00" arrivalLane="758926626_0" arrivalPos="143.98" arrivalSpeed="7.50" duration="101.00" routeLength="880.34" waitingTime="1.00" waitingCount="1" stopTime="0.00" timeLoss="22.77" rerouteNo="0" devices="tripinfo_flow2.0_bicycle.3 emissions_flow2.0_bicycle.3" vType="car_fast" speedFactor="1.00" vaporized="">
        <emissions CO_abs="5804.030716" CO2_abs="304426.581335" HC_abs="33.487195" PMx_abs="5.490416" NOx_abs="125.512236" fuel_abs="97098.642756" electricity_abs="0"/>
    </tripinfo>
    <tripinfo id="flow4.1_bicycle.3" depart="158.00" departLane="-758926622_0" departPos="5.10" departSpeed="0.00" departDelay="9.04" arrival="424.00" arrivalLane="132346057#5_0" arrivalPos="344.19" arrivalSpeed="8.06" duration="266.00" routeLength="1923.34" waitingTime="34.00" waitingCount="3" stopTime="0.00" timeLoss="94.94" rerouteNo="0" devices="tripinfo_flow4.1_bicycle.3 emissions_flow4.1_bicycle.3" vType="car" speedFactor="1.03" vaporized="">
        <emissions CO_abs="16893.643411" CO2_abs="665735.902595" HC_abs="92.011883" PMx_abs="11.669195" NOx_abs="272.480011" fuel_abs="212343.375894" electricity_abs="0"/>
    </tripinfo>
    <tripinfo id="flow4.1_bicycle.4" depart="161.00" departLane="-758926622_0" departPos="5.10" departSpeed="0.00" departDelay="12.04" arrival="441.00" arrivalLane="132346057#5_0" arrivalPos="344.19" arrivalSpeed="6.09" duration="280.00" routeLength="1923.34" waitingTime="17.00" waitingCount="1" stopTime="0.00" timeLoss="77.30" rerouteNo="0" devices="tripinfo_flow4.1_bicycle.4 emissions_flow4.1_bicycle.4" vType="car" speedFactor="0.83" vaporized="">
        <emissions CO_abs="16058.566616" CO2_abs="643389.090309" HC_abs="87.770267" PMx_abs="10.567756" NOx_abs="259.907533" fuel_abs="205216.222236" electricity_abs="0"/>
    </tripinfo>
    <tripinfo id="flow4.1_bicycle.5" depart="164.00" departLane="-758926622_0" departPos="5.10" departSpeed="0.00" departDelay="15.04" arrival="443.00" arrivalLane="132346057#5_0" arrivalPos="344.19" arrivalSpeed="7.94" duration="279.00" routeLength="1923.34" waitingTime="16.00" waitingCount="1" stopTime="0.00" timeLoss="109.26" rerouteNo="0" devices="tripinfo_flow4.1_bicycle.5 emissions_flow4.1_bicycle.5" vType="car" speedFactor="1.05" vaporized="">
        <emissions CO_abs="15970.962301" CO2_abs="655508.727939" HC_abs="87.779871" PMx_abs="11.647347" NOx_abs="270.615889" fuel_abs="209080.643403" electricity_abs="0"/>
    </tripinfo>
    <tripinfo id="flow4.1_bicycle.6" depart="167.00" departLane="-758926622_0" departPos="5.10" departSpeed="0.00" departDelay="18.04" arrival="445.00" arrivalLane="132346057#5_0" arrivalPos="344.19" arrivalSpeed="6.78" duration="278.00" routeLength="1923.34" waitingTime="13.00" waitingCount="1" stopTime="0.00" timeLoss="86.40" rerouteNo="0" devices="tripinfo_flow4.1_bicycle.6 emissions_flow4.1_bicycle.6" vType="car" speedFactor="0.89" vaporized="">
        <emissions CO_abs="15595.505351" CO2_abs="639607.912478" HC_abs="85.648733" PMx_abs="10.972158" NOx_abs="261.420296" fuel_abs="204009.394889" electricity_abs="0"/>
    </tripinfo>
    <tripinfo id="flow5.4" depart="387.00" departLane="67209282#0_0" departPos="5.10" departSpeed="0.00" departDelay="0.00" arrival="455.00" arrivalLane="-67504621_0" arrivalPos="163.75" arrivalSpeed="12.88" duration="68.00" routeLength="732.17" waitingTime="0.00" waitingCount="0" stopTime="0.00" timeLoss="11.29" rerouteNo="0" devices="tripinfo_flow5.4 emissions_flow5.4" vType="car" speedFactor="0.94" vaporized="">
        <emissions CO_abs="3153.891362" CO2_abs="214794.252924" HC_abs="19.255917" PMx_abs="3.637601" NOx_abs="86.471819" fuel_abs="68509.590988" electricity_abs="0"/>
    </tripinfo>
    <tripinfo id="flow2.0_bicycle.4" depart="325.00" departLane="758926614#0_0" departPos="5.10" departSpeed="0.00" departDelay="11.67" arrival="456.00" arrivalLane="758926626_0" arrivalPos="143.98" arrivalSpeed="6.45" duration="131.00" routeLength="880.34" waitingTime="19.00" waitingCount="1" stopTime="0.00" timeLoss="45.55" rerouteNo="0" devices="tripinfo_flow2.0_bicycle.4 emissions_flow2.0_bicycle.4" vType="car_fast" speedFactor="0.90" vaporized="">
        <emissions CO_abs="9012.632644" CO2_abs="338687.330618" HC_abs="48.932549" PMx_abs="6.447747" NOx_abs="142.159904" fuel_abs="108027.536424" electricity_abs="0"/>
    </tripinfo>
    <tripinfo id="flow5.4.1" depart="390.00" departLane="67209282#0_0" departPos="5.10" departSpeed="0.00" departDelay="3.00" arrival="460.00" arrivalLane="-67504621_0" arrivalPos="163.75" arrivalSpeed="11.83" duration="70.00" routeLength="732.17" waitingTime="0.00" waitingCount="0" stopTime="0.00" timeLoss="10.90" rerouteNo="0" devices="tripinfo_flow5.4.1 emissions_flow5.4.1" vType="car" speedFactor="0.88" vaporized="">
        <emissions CO_abs="2622.251086" CO2_abs="189428.021821" HC_abs="16.191139" PMx_abs="2.974218" NOx_abs="74.458548" fuel_abs="60419.094279" electricity_abs="0"/>
    </tripinfo>
    <tripinfo id="flow2.0_bicycle.5" depart="328.00" departLane="758926614#0_0" departPos="5.10" departSpeed="0.00" departDelay="14.67" arrival="461.00" arrivalLane="758926626_0" arrivalPos="143.98" arrivalSpeed="6.21" duration="133.00" routeLength="880.34" waitingTime="17.00" waitingCount="1" stopTime="0.00" timeLoss="44.36" rerouteNo="0" devices="tripinfo_flow2.0_bicycle.5 emissions_flow2.0_bicycle.5" vType="car_fast" speedFactor="0.88" vaporized="">
        <emissions CO_abs="9310.795100" CO2_abs="347986.933568" HC_abs="50.459319" PMx_abs="6.515427" NOx_abs="145.744531" fuel_abs="110993.841961" electricity_abs="0"/>
    </tripinfo>
    <tripinfo id="flow5.4.2" depart="393.00" departLane="67209282#0_0" departPos="5.10" departSpeed="0.00" departDelay="6.00" arrival="463.00" arrivalLane="-67504621_0" arrivalPos="163.75" arrivalSpeed="11.80" duration="70.00" routeLength="732.17" waitingTime="0.00" waitingCount="0" stopTime="0.00" timeLoss="12.05" rerouteNo="0" devices="tripinfo_flow5.4.2 emissions_flow5.4.2" vType="car" speedFactor="0.91" vaporized="">
        <emissions CO_abs="2706.760065" CO2_abs="191290.896681" HC_abs="16.559957" PMx_abs="3.007397" NOx_abs="75.189670" fuel_abs="61013.310934" electricity_abs="0"/>
    </tripinfo>
    <tripinfo id="flow5.4.3" depart="396.00" departLane="67209282#0_0" departPos="5.10" departSpeed="0.00" departDelay="9.00" arrival="465.00" arrivalLane="-67504621_0" arrivalPos="163.75" arrivalSpeed="12.02" duration="69.00" routeLength="732.17" waitingTime="0.00" waitingCount="0" stopTime="0.00" timeLoss="11.51" rerouteNo="0" devices="tripinfo_flow5.4.3 emissions_flow5.4.3" vType="car" speedFactor="0.91" vaporized="">
        <emissions CO_abs="2439.694921" CO2_abs="182111.287192" HC_abs="15.142875" PMx_abs="2.811455" NOx_abs="71.100727" fuel_abs="58085.389152" electricity_abs="0"/>
    </tripinfo>
    <tripinfo id="flow2.0_bicycle.6" depart="331.00" departLane="758926614#0_0" departPos="5.10" departSpeed="0.00" departDelay="17.67" arrival="466.00" arrivalLane="758926626_0" arrivalPos="143.98" arrivalSpeed="6.90" duration="135.00" routeLength="880.34" waitingTime="16.00" waitingCount="1" stopTime="0.00" timeLoss="43.64" rerouteNo="0" devices="tripinfo_flow2.0_bicycle.6 emissions_flow2.0_bicycle.6" vType="car_fast" speedFactor="0.85" vaporized="">
        <emissions CO_abs="9200.842215" CO2_abs="340968.972453" HC_abs="49.700252" PMx_abs="6.380908" NOx_abs="142.565396" fuel_abs="108755.443218" electricity_abs="0"/>
    </tripinfo>
    <tripinfo id="flow5.4.4" depart="399.00" departLane="67209282#0_0" departPos="5.10" departSpeed="0.00" departDelay="12.00" arrival="467.00" arrivalLane="-67504621_0" arrivalPos="163.75" arrivalSpeed="13.45" duration="68.00" routeLength="732.17" waitingTime="0.00" waitingCount="0" stopTime="0.00" timeLoss="13.11" rerouteNo="0" devices="tripinfo_flow5.4.4 emissions_flow5.4.4" vType="car" speedFactor="1.04" vaporized="">
        <emissions CO_abs="2735.040712" CO2_abs="202040.105756" HC_abs="16.885198" PMx_abs="3.154359" NOx_abs="79.040756" fuel_abs="64441.767623" electricity_abs="0"/>
    </tripinfo>
    <tripinfo id="flow5.4.5" depart="402.00" departLane="67209282#0_0" departPos="5.10" departSpeed="0.00" departDelay="15.00" arrival="470.00" arrivalLane="-67504621_0" arrivalPos="163.75" arrivalSpeed="12.73" duration="68.00" routeLength="732.17" waitingTime="0.00" waitingCount="0" stopTime="0.00" timeLoss="13.37" rerouteNo="0" devices="tripinfo_flow5.4.5 emissions_flow5.4.5" vType="car" speedFactor="1.02" vaporized="">
        <emissions CO_abs="2643.891560" CO2_abs="188046.509284" HC_abs="16.093827" PMx_abs="2.967142" NOx_abs="73.651663" fuel_abs="59978.463976" electricity_abs="0"/>
    </tripinfo>
    <tripinfo id="flow5.4.6" depart="405.00" departLane="67209282#0_0" departPos="5.10" departSpeed="0.00" departDelay="18.00" arrival="473.00" arrivalLane="-67504621_0" arrivalPos="163.75" arrivalSpeed="13.26" duration="68.00" routeLength="732.17" waitingTime="0.00" waitingCount="0" stopTime="0.00" timeLoss="12.89" rerouteNo="0" devices="tripinfo_flow5.4.6 emissions_flow5.4.6" vType="car" speedFactor="1.02" vaporized="">
        <emissions CO_abs="2624.228550" CO2_abs="194382.562497" HC_abs="16.265851" PMx_abs="2.980929" NOx_abs="75.580381" fuel_abs="61999.429946" electricity_abs="0"/>
    </tripinfo>
    <tripinfo id="flow4.0" depart="208.00" departLane="-758926622_0" departPos="5.10" departSpeed="0.00" departDelay="10.00" arrival="487.00" arrivalLane="132346057#5_0" arrivalPos="344.19" arrivalSpeed="7.71" duration="279.00" routeLength="1923.34" waitingTime="20.00" waitingCount="1" stopTime="0.00" timeLoss="43.60" rerouteNo="0" devices="tripinfo_flow4.0 emissions_flow4.0" vType="car_slow" speedFactor="0.97" vaporized="">
        <emissions CO_abs="13843.503234" CO2_abs="548614.014212" HC_abs="75.320504" PMx_abs="7.577697" NOx_abs="213.542351" fuel_abs="174988.273592" electricity_abs="0"/>
    </tripinfo>
    <tripinfo id="flow4.0.1" depart="212.00" departLane="-758926622_0" departPos="5.10" departSpeed="0.00" departDelay="14.00" arrival="524.00" arrivalLane="132346057#5_0" arrivalPos="344.19" arrivalSpeed="7.41" duration="312.00" routeLength="1923.34" waitingTime="31.00" waitingCount="2" stopTime="0.00" timeLoss="68.55" rerouteNo="0" devices="tripinfo_flow4.0.1 emissions_flow4.0.1" vType="car_slow" speedFactor="0.89" vaporized="">
        <emissions CO_abs="18197.548857" CO2_abs="622659.066549" HC_abs="96.861315" PMx_abs="9.303696" NOx_abs="247.101658" fuel_abs="198606.766222" electricity_abs="0"/>
    </tripinfo>
    <tripinfo id="flow4.0.2" depart="216.00" departLane="-758926622_0" departPos="5.10" departSpeed="0.00" departDelay="18.00" arrival="533.00" arrivalLane="132346057#5_0" arrivalPos="344.19" arrivalSpeed="6.28" duration="317.00" routeLength="1923.34" waitingTime="25.00" waitingCount="2" stopTime="0.00" timeLoss="66.37" rerouteNo="0" devices="tripinfo_flow4.0.2 emissions_flow4.0.2" vType="car_slow" speedFactor="0.83" vaporized="">
        <emissions CO_abs="18582.081127" CO2_abs="622144.055426" HC_abs="98.598353" PMx_abs="9.363717" NOx_abs="247.546044" fuel_abs="198442.656038" electricity_abs="0"/>
    </tripinfo>
    <tripinfo id="flow4.0.3" depart="220.00" departLane="-758926622_0" departPos="5.10" departSpeed="0.00" departDelay="22.00" arrival="535.00" arrivalLane="132346057#5_0" arrivalPos="344.19" arrivalSpeed="6.90" duration="315.00" routeLength="1923.34" waitingTime="21.00" waitingCount="2" stopTime="0.00" timeLoss="69.99" rerouteNo="0" devices="tripinfo_flow4.0.3 emissions_flow4.0.3" vType="car_slow" speedFactor="0.87" vaporized="">
        <emissions CO_abs="18496.074373" CO2_abs="637000.299034" HC_abs="98.544172" PMx_abs="9.524713" NOx_abs="253.093968" fuel_abs="203181.020627" electricity_abs="0"/>
    </tripinfo>